 argument  1 = input.nw
                                         
                                         


              Northwest Computational Chemistry Package (NWChem) 6.1
              ------------------------------------------------------


                    Environmental Molecular Sciences Laboratory
                       Pacific Northwest National Laboratory
                                Richland, WA 99352

                              Copyright (c) 1994-2010
                       Pacific Northwest National Laboratory
                            Battelle Memorial Institute

             NWChem is an open-source computational chemistry package
                        distributed under the terms of the
                      Educational Community License (ECL) 2.0
             A copy of the license is included with this distribution
                              in the LICENSE.TXT file

                                  ACKNOWLEDGMENT
                                  --------------

            This software and its documentation were developed at the
            EMSL at Pacific Northwest National Laboratory, a multiprogram
            national laboratory, operated for the U.S. Department of Energy
            by Battelle under Contract Number DE-AC05-76RL01830. Support
            for this work was provided by the Department of Energy Office
            of Biological and Environmental Research, Office of Basic
            Energy Sciences, and the Office of Advanced Scientific Computing.


           Job information
           ---------------

    hostname      = fryslan
    program       = ../../nwchem-6.1/bin/LINUX64/nwchem.test
    date          = Tue Apr 16 10:38:00 2013

    compiled      = Tue_Apr_16_10:37:29_2013
    source        = /home/bert/nwchem-6.1
    nwchem branch = 6.1
    input         = input.nw
    prefix        = nmrrun.
    data base     = ./nmrrun.db
    status        = startup
    nproc         =        1
    time left     =     -1s



           Memory information
           ------------------

    heap     =   13107201 doubles =    100.0 Mbytes
    stack    =  196608001 doubles =   1500.0 Mbytes
    global   =  196608000 doubles =   1500.0 Mbytes (distinct from heap & stack)
    total    =  406323202 doubles =   3100.0 Mbytes
    verify   = yes
    hardfail = no 


           Directory information
           ---------------------

  0 permanent = .
  0 scratch   = .




                                NWChem Input Module
                                -------------------



 Scaling coordinates for geometry "geometry" by  1.889725989
 (inverse scale =  0.529177249)

 C1  symmetry detected

          ------
          auto-z
          ------
      warning. autoz generated   11 bonds for atom    1


                             Geometry "geometry" -> ""
                             -------------------------

 Output coordinates in angstroms (scale by  1.889725989 to convert to a.u.)

  No.       Tag          Charge          X              Y              Z
 ---- ---------------- ---------- -------------- -------------- --------------
    1 U                   92.0000    -0.00614496     0.00026251    -0.00011020
    2 O1                   8.0000     0.00874636    -0.14696157    -1.78737328
    3 O1                   8.0000     0.01090519     0.14648906     1.78801706
    4 O                    8.0000     4.12543668    -0.02721556    -0.00038876
    5 O                    8.0000     2.17493337    -1.13497551     0.16268705
    6 O                    8.0000     2.18988202     1.10543045    -0.16199996
    7 O                    8.0000    -0.14460419    -2.42643447     0.20223796
    8 O                    8.0000    -2.06044477    -1.36173414    -0.08026881
    9 O                    8.0000    -2.07451997    -3.58242441    -0.08217257
   10 O                    8.0000    -2.04296831     1.38797504     0.08025531
   11 O                    8.0000    -0.11304794     2.42754442    -0.20267203
   12 O                    8.0000    -2.02756692     3.60957904     0.08279648
   13 C                    6.0000     2.91100105    -0.01943284     0.00034513
   14 C                    6.0000    -1.45627452    -2.49995208    -0.00217120
   15 C                    6.0000    -1.42283909     2.51899656     0.00202449

      Atomic Mass 
      ----------- 

      U                238.050800
      O1                15.994910
      O                 15.994910
      C                 12.000000


 Effective nuclear repulsion energy (a.u.)    2815.3314398870

            Nuclear Dipole moment (a.u.) 
            ----------------------------
        X                 Y               Z
 ---------------- ---------------- ----------------
     0.0000000000     0.0000000000     0.0000000000



                                Z-matrix (autoz)
                                -------- 

 Units are Angstrom for bonds and degrees for angles

      Type          Name      I     J     K     L     M      Value
      ----------- --------  ----- ----- ----- ----- ----- ----------
    1 Stretch                  1     2                       1.79338
    2 Stretch                  1     3                       1.79418
    3 Stretch                  1     5                       2.46422
    4 Stretch                  1     6                       2.46376
    5 Stretch                  1     7                       2.43905
    6 Stretch                  1     8                       2.46609
    7 Stretch                  1    10                       2.46594
    8 Stretch                  1    11                       2.43806
    9 Stretch                  1    13                       2.91721
   10 Stretch                  1    14                       2.89032
   11 Stretch                  1    15                       2.88982
   12 Stretch                  4    13                       1.21446
   13 Stretch                  5    13                       1.34632
   14 Stretch                  6    13                       1.34599
   15 Stretch                  7    14                       1.32954
   16 Stretch                  8    14                       1.29099
   17 Stretch                  9    14                       1.24915
   18 Stretch                 10    15                       1.29224
   19 Stretch                 11    15                       1.32884
   20 Stretch                 12    15                       1.24964
   21 Bend                     1     5    13                95.40640
   22 Bend                     1     6    13                95.43592
   23 Bend                     1     7    14                95.63930
   24 Bend                     1     8    14                95.45837
   25 Bend                     1    10    15                95.40483
   26 Bend                     1    11    15                95.67798
   27 Bend                     1    13     5                57.24152
   28 Bend                     1    13     6                57.22080
   29 Bend                     1    14     7                57.11741
   30 Bend                     1    14     8                58.14163
   31 Bend                     1    15    10                58.16014
   32 Bend                     1    15    11                57.09101
   33 Bend                     2     1     5                91.18441
   34 Bend                     2     1     6                87.93341
   35 Bend                     2     1     7                90.08440
   36 Bend                     2     1     8                85.93916
   37 Bend                     2     1    10                94.90683
   38 Bend                     2     1    11                89.95957
   39 Bend                     2     1    13                89.50141
   40 Bend                     2     1    14                86.12628
   41 Bend                     2     1    15                94.37927
   42 Bend                     3     1     5                87.89641
   43 Bend                     3     1     6                91.17222
   44 Bend                     3     1     7                89.93956
   45 Bend                     3     1     8                94.89459
   46 Bend                     3     1    10                85.95755
   47 Bend                     3     1    11                90.11914
   48 Bend                     3     1    13                89.47813
   49 Bend                     3     1    14                94.35748
   50 Bend                     3     1    15                86.15184
   51 Bend                     4    13     5               122.78418
   52 Bend                     4    13     6               122.75349
   53 Bend                     5     1     6                54.69535
   54 Bend                     5     1     7                65.56937
   55 Bend                     5     1     8               119.01365
   56 Bend                     5     1    10               171.18107
   57 Bend                     5     1    11               120.19535
   58 Bend                     5     1    13                27.35208
   59 Bend                     5     1    14                92.61410
   60 Bend                     5     1    15               146.65655
   61 Bend                     5    13     6               114.46232
   62 Bend                     6     1     7               120.15536
   63 Bend                     6     1     8               171.15132
   64 Bend                     6     1    10               119.07352
   65 Bend                     6     1    11                65.60899
   66 Bend                     6     1    13                27.34327
   67 Bend                     6     1    14               146.63416
   68 Bend                     6     1    15                92.63901
   69 Bend                     7     1     8                53.55265
   70 Bend                     7     1    10               120.68440
   71 Bend                     7     1    11               174.23262
   72 Bend                     7     1    13                92.86806
   73 Bend                     7     1    14                27.24330
   74 Bend                     7     1    15               147.06452
   75 Bend                     7    14     8               114.97665
   76 Bend                     7    14     9               123.09620
   77 Bend                     8     1    10                67.90165
   78 Bend                     8     1    11               120.70519
   79 Bend                     8     1    13               146.02441
   80 Bend                     8     1    14                26.40000
   81 Bend                     8     1    15                94.18733
   82 Bend                     8    14     9               121.90561
   83 Bend                    10     1    11                53.57479
   84 Bend                    10     1    13               146.07393
   85 Bend                    10     1    14                94.15238
   86 Bend                    10     1    15                26.43503
   87 Bend                    10    15    11               114.96708
   88 Bend                    10    15    12               121.85006
   89 Bend                    11     1    13                92.89932
   90 Bend                    11     1    14               147.05008
   91 Bend                    11     1    15                27.23101
   92 Bend                    11    15    12               123.16173
   93 Bend                    13     1    14               119.72699
   94 Bend                    13     1    15               119.74295
   95 Bend                    14     1    15               120.53006
   96 Torsion                  1     5    13     4        -179.95207
   97 Torsion                  1     5    13     6           0.00691
   98 Torsion                  1     6    13     4         179.95208
   99 Torsion                  1     6    13     5          -0.00691
  100 Torsion                  1     7    14     8          -6.00677
  101 Torsion                  1     7    14     9         175.65424
  102 Torsion                  1     8    14     7           5.93884
  103 Torsion                  1     8    14     9        -175.70032
  104 Torsion                  1    10    15    11           5.95482
  105 Torsion                  1    10    15    12        -175.66754
  106 Torsion                  1    11    15    10          -6.02595
  107 Torsion                  1    11    15    12         175.62026
  108 Torsion                  2     1     5    13          86.62268
  109 Torsion                  2     1     6    13         -92.91332
  110 Torsion                  2     1     7    14         -81.34752
  111 Torsion                  2     1     8    14          89.46682
  112 Torsion                  2     1    10    15         -89.96980
  113 Torsion                  2     1    11    15          99.68584
  114 Torsion                  1     2    13     4        -179.95599
  115 Torsion                  2     1    13     5         -93.54390
  116 Torsion                  2     1    13     6          86.46358
  117 Torsion                  2     1    14     7          97.74327
  118 Torsion                  2     1    14     8         -88.66913
  119 Torsion                  1     2    14     9        -179.65689
  120 Torsion                  2     1    15    10          92.21573
  121 Torsion                  2     1    15    11         -81.35217
  122 Torsion                  1     2    15    12         179.50127
  123 Torsion                  3     1     5    13         -92.93310
  124 Torsion                  3     1     6    13          86.59435
  125 Torsion                  3     1     7    14          99.67302
  126 Torsion                  3     1     8    14         -89.94236
  127 Torsion                  3     1    10    15          89.48546
  128 Torsion                  3     1    11    15         -81.33195
  129 Torsion                  1     3    13     4         179.95595
  130 Torsion                  3     1    13     5          86.42896
  131 Torsion                  3     1    13     6         -93.56356
  132 Torsion                  3     1    14     7         -81.35548
  133 Torsion                  3     1    14     8          92.23212
  134 Torsion                  1     3    14     9         179.42307
  135 Torsion                  3     1    15    10         -88.65830
  136 Torsion                  3     1    15    11          97.77380
  137 Torsion                  1     3    15    12        -179.71519
  138 Torsion                  5     1     6    13           0.00421
  139 Torsion                  5     1     7    14        -172.61008
  140 Torsion                  5     1     8    14           0.36517
  141 Torsion                  5     1    10    15          43.55523
  142 Torsion                  5     1    11    15        -168.96732
  143 Torsion                  5     1    13     6        -179.99252
  144 Torsion                  5     1    14     7           6.73208
  145 Torsion                  5     1    14     8        -179.68032
  146 Torsion                  1     5    14     9         174.27383
  147 Torsion                  5     1    15    10        -168.91918
  148 Torsion                  5     1    15    11          17.51292
  149 Torsion                  1     5    15    12         167.23567
  150 Torsion                  5    13     1     6         179.99252
  151 Torsion                  5    13     1     7          -3.48438
  152 Torsion                  5    13     1     8         -11.57078
  153 Torsion                  5    13     1    10         168.38949
  154 Torsion                  5    13     1    11         176.52183
  155 Torsion                  5    13     1    14          -8.29158
  156 Torsion                  5    13     1    15         171.69651
  157 Torsion                  6     1     5    13          -0.00421
  158 Torsion                  6     1     7    14        -169.00638
  159 Torsion                  6     1     8    14          43.17990
  160 Torsion                  6     1    10    15           0.39232
  161 Torsion                  6     1    11    15        -172.56503
  162 Torsion                  6     1    14     7          17.44633
  163 Torsion                  6     1    14     8        -168.96607
  164 Torsion                  1     6    14     9         167.38365
  165 Torsion                  6     1    15    10        -179.65675
  166 Torsion                  6     1    15    11           6.77535
  167 Torsion                  1     6    15    12         174.22116
  168 Torsion                  6    13     1     7         176.52310
  169 Torsion                  6    13     1     8         168.43670
  170 Torsion                  6    13     1    10         -11.60303
  171 Torsion                  6    13     1    11          -3.47069
  172 Torsion                  6    13     1    14         171.71590
  173 Torsion                  6    13     1    15          -8.29602
  174 Torsion                  7     1     5    13         176.17728
  175 Torsion                  7     1     6    13          -4.01688
  176 Torsion                  7     1     8    14          -3.64401
  177 Torsion                  7     1    10    15         177.01151
  178 Torsion                  7     1    11    15           9.24625
  179 Torsion                  1     7    13     4        -179.93316
  180 Torsion                  7     1    14     8         173.58760
  181 Torsion                  7     1    15    10          -4.73029
  182 Torsion                  7     1    15    11        -178.29819
  183 Torsion                  1     7    15    12        -166.28785
  184 Torsion                  7    14     1     8        -173.58760
  185 Torsion                  7    14     1    10        -167.60830
  186 Torsion                  7    14     1    11        -178.32814
  187 Torsion                  7    14     1    13          10.53516
  188 Torsion                  7    14     1    15        -169.45283
  189 Torsion                  8     1     5    13         172.63576
  190 Torsion                  8     1     6    13         -46.73784
  191 Torsion                  8     1     7    14           3.53932
  192 Torsion                  8     1    10    15        -173.56405
  193 Torsion                  8     1    11    15          14.43430
  194 Torsion                  1     8    13     4        -179.83303
  195 Torsion                  8     1    15    10           5.97740
  196 Torsion                  8     1    15    11        -167.59050
  197 Torsion                  1     8    15    12        -174.11433
  198 Torsion                  8    14     1    10           5.97930
  199 Torsion                  8    14     1    11          -4.74054
  200 Torsion                  8    14     1    13        -175.87724
  201 Torsion                  8    14     1    15           4.13477
  202 Torsion                 10     1     5    13         -47.11020
  203 Torsion                 10     1     6    13         172.62062
  204 Torsion                 10     1     7    14          14.41096
  205 Torsion                 10     1     8    14        -173.56171
  206 Torsion                 10     1    11    15           3.55352
  207 Torsion                  1    10    13     4         179.83311
  208 Torsion                  1    10    14     9        -174.16522
  209 Torsion                 10     1    15    11        -173.56790
  210 Torsion                 10    15     1    11         173.56790
  211 Torsion                 10    15     1    13        -175.85270
  212 Torsion                 10    15     1    14           4.13529
  213 Torsion                 11     1     5    13          -4.01987
  214 Torsion                 11     1     6    13         176.19359
  215 Torsion                 11     1     7    14           9.08578
  216 Torsion                 11     1     8    14         177.00323
  217 Torsion                 11     1    10    15          -3.65261
  218 Torsion                  1    11    13     4         179.93320
  219 Torsion                  1    11    14     9        -166.35480
  220 Torsion                 11    15     1    13          10.57940
  221 Torsion                 11    15     1    14        -169.43261
  222 Torsion                 13     1     7    14        -170.85253
  223 Torsion                 13     1     8    14           6.41435
  224 Torsion                 13     1    10    15           6.45992
  225 Torsion                 13     1    11    15        -170.81545
  226 Torsion                  1    13    14     9         172.90900
  227 Torsion                  1    13    15    12         172.83846
  228 Torsion                 13     5     1    14         172.79829
  229 Torsion                 13     5     1    15         -13.18678
  230 Torsion                 13     6     1    14         -13.14983
  231 Torsion                 13     6     1    15         172.79545
  232 Torsion                 14     1    10    15        -176.42943
  233 Torsion                 14     1    11    15          16.88374
  234 Torsion                  1    14    13     4        -179.91274
  235 Torsion                  1    14    15    12        -172.56637
  236 Torsion                 14     7     1    15          16.85760
  237 Torsion                 14     8     1    15        -176.42972
  238 Torsion                  1    15    13     4         179.91281
  239 Torsion                  1    15    14     9        -172.62293


            XYZ format geometry
            -------------------
    15
 geometry
 U                    -0.00614496     0.00026251    -0.00011020
 O1                    0.00874636    -0.14696157    -1.78737328
 O1                    0.01090519     0.14648906     1.78801706
 O                     4.12543668    -0.02721556    -0.00038876
 O                     2.17493337    -1.13497551     0.16268705
 O                     2.18988202     1.10543045    -0.16199996
 O                    -0.14460419    -2.42643447     0.20223796
 O                    -2.06044477    -1.36173414    -0.08026881
 O                    -2.07451997    -3.58242441    -0.08217257
 O                    -2.04296831     1.38797504     0.08025531
 O                    -0.11304794     2.42754442    -0.20267203
 O                    -2.02756692     3.60957904     0.08279648
 C                     2.91100105    -0.01943284     0.00034513
 C                    -1.45627452    -2.49995208    -0.00217120
 C                    -1.42283909     2.51899656     0.00202449

 ==============================================================================
                                internuclear distances
 ------------------------------------------------------------------------------
       center one      |      center two      | atomic units |  angstroms
 ------------------------------------------------------------------------------
    2 O1               |   1 U                |     3.38899  |     1.79338
    3 O1               |   1 U                |     3.39050  |     1.79418
    5 O                |   1 U                |     4.65670  |     2.46422
    6 O                |   1 U                |     4.65584  |     2.46377
    7 O                |   1 U                |     4.60914  |     2.43905
    8 O                |   1 U                |     4.66024  |     2.46609
   10 O                |   1 U                |     4.65995  |     2.46594
   11 O                |   1 U                |     4.60727  |     2.43806
   13 C                |   1 U                |     5.51273  |     2.91721
   13 C                |   4 O                |     2.29500  |     1.21446
   13 C                |   5 O                |     2.54418  |     1.34632
   13 C                |   6 O                |     2.54355  |     1.34599
   14 C                |   1 U                |     5.46191  |     2.89032
   14 C                |   7 O                |     2.51246  |     1.32954
   14 C                |   8 O                |     2.43962  |     1.29099
   14 C                |   9 O                |     2.36055  |     1.24915
   15 C                |   1 U                |     5.46096  |     2.88982
   15 C                |  10 O                |     2.44198  |     1.29224
   15 C                |  11 O                |     2.51114  |     1.32884
   15 C                |  12 O                |     2.36147  |     1.24964
 ------------------------------------------------------------------------------
                         number of included internuclear distances:         20
 ==============================================================================



 ==============================================================================
                                 internuclear angles
 ------------------------------------------------------------------------------
        center 1       |       center 2       |       center 3       |  degrees
 ------------------------------------------------------------------------------
    2 O1               |   1 U                |   3 O1               |   178.98
    2 O1               |   1 U                |   5 O                |    91.18
    2 O1               |   1 U                |   6 O                |    87.93
    2 O1               |   1 U                |   7 O                |    90.08
    2 O1               |   1 U                |   8 O                |    85.94
    2 O1               |   1 U                |  10 O                |    94.91
    2 O1               |   1 U                |  11 O                |    89.96
    2 O1               |   1 U                |  13 C                |    89.50
    2 O1               |   1 U                |  14 C                |    86.13
    2 O1               |   1 U                |  15 C                |    94.38
    3 O1               |   1 U                |   5 O                |    87.90
    3 O1               |   1 U                |   6 O                |    91.17
    3 O1               |   1 U                |   7 O                |    89.94
    3 O1               |   1 U                |   8 O                |    94.89
    3 O1               |   1 U                |  10 O                |    85.96
    3 O1               |   1 U                |  11 O                |    90.12
    3 O1               |   1 U                |  13 C                |    89.48
    3 O1               |   1 U                |  14 C                |    94.36
    3 O1               |   1 U                |  15 C                |    86.15
    5 O                |   1 U                |   6 O                |    54.70
    5 O                |   1 U                |   7 O                |    65.57
    5 O                |   1 U                |   8 O                |   119.01
    5 O                |   1 U                |  10 O                |   171.18
    5 O                |   1 U                |  11 O                |   120.20
    1 U                |   5 O                |  13 C                |    95.41
    5 O                |   1 U                |  14 C                |    92.61
    5 O                |   1 U                |  15 C                |   146.66
    6 O                |   1 U                |   7 O                |   120.16
    6 O                |   1 U                |   8 O                |   171.15
    6 O                |   1 U                |  10 O                |   119.07
    6 O                |   1 U                |  11 O                |    65.61
    1 U                |   6 O                |  13 C                |    95.44
    6 O                |   1 U                |  14 C                |   146.63
    6 O                |   1 U                |  15 C                |    92.64
    7 O                |   1 U                |   8 O                |    53.55
    7 O                |   1 U                |  10 O                |   120.68
    7 O                |   1 U                |  11 O                |   174.23
    7 O                |   1 U                |  13 C                |    92.87
    1 U                |   7 O                |  14 C                |    95.64
    7 O                |   1 U                |  15 C                |   147.06
    8 O                |   1 U                |  10 O                |    67.90
    8 O                |   1 U                |  11 O                |   120.71
    8 O                |   1 U                |  13 C                |   146.02
    1 U                |   8 O                |  14 C                |    95.46
    8 O                |   1 U                |  15 C                |    94.19
   10 O                |   1 U                |  11 O                |    53.57
   10 O                |   1 U                |  13 C                |   146.07
   10 O                |   1 U                |  14 C                |    94.15
    1 U                |  10 O                |  15 C                |    95.40
   11 O                |   1 U                |  13 C                |    92.90
   11 O                |   1 U                |  14 C                |   147.05
    1 U                |  11 O                |  15 C                |    95.68
   13 C                |   1 U                |  14 C                |   119.73
   13 C                |   1 U                |  15 C                |   119.74
   14 C                |   1 U                |  15 C                |   120.53
    1 U                |   5 O                |  13 C                |    95.41
    1 U                |   6 O                |  13 C                |    95.44
    1 U                |   7 O                |  14 C                |    95.64
    1 U                |   8 O                |  14 C                |    95.46
    1 U                |  10 O                |  15 C                |    95.40
    1 U                |  11 O                |  15 C                |    95.68
    1 U                |  13 C                |   4 O                |   179.95
   13 C                |   5 O                |   1 U                |    95.41
   13 C                |   6 O                |   1 U                |    95.44
    4 O                |  13 C                |   5 O                |   122.78
    4 O                |  13 C                |   6 O                |   122.75
    5 O                |  13 C                |   6 O                |   114.46
   14 C                |   7 O                |   1 U                |    95.64
   14 C                |   8 O                |   1 U                |    95.46
    1 U                |  14 C                |   9 O                |   176.35
    7 O                |  14 C                |   8 O                |   114.98
    7 O                |  14 C                |   9 O                |   123.10
    8 O                |  14 C                |   9 O                |   121.91
   15 C                |  10 O                |   1 U                |    95.40
   15 C                |  11 O                |   1 U                |    95.68
    1 U                |  15 C                |  12 O                |   176.32
   10 O                |  15 C                |  11 O                |   114.97
   10 O                |  15 C                |  12 O                |   121.85
   11 O                |  15 C                |  12 O                |   123.16
 ------------------------------------------------------------------------------
                            number of included internuclear angles:         79
 ==============================================================================



                      Basis "aoBasis" -> "" (cartesian)
                      -----
  U (Uranium)
  -----------
            Exponent  Coefficients 
       -------------- ---------------------------------------------------------
  1 S  1.53493360E+03  0.000920
  1 S  2.27748380E+02  0.003682
  1 S  3.06968310E+01 -0.150231
  1 S  1.81706260E+01  0.903995
  1 S  1.08135370E+01 -1.485922
  1 S  2.73329800E+00  1.124404
  1 S  1.43149800E+00  0.351076

  2 S  1.53493360E+03 -0.000695
  2 S  2.27748380E+02 -0.002293
  2 S  3.06968310E+01  0.072444
  2 S  1.81706260E+01 -0.490559
  2 S  1.08135370E+01  0.889840
  2 S  2.73329800E+00 -1.115758
  2 S  1.43149800E+00 -0.333650

  3 S  1.53493360E+03  0.000223
  3 S  2.27748380E+02  0.000722
  3 S  3.06968310E+01 -0.021702
  3 S  1.81706260E+01  0.149796
  3 S  1.08135370E+01 -0.276110
  3 S  2.73329800E+00  0.376579
  3 S  1.43149800E+00  0.124408

  4 S  6.15298000E-01  1.000000

  5 S  2.86639000E-01  1.000000

  6 S  7.11700000E-02  1.000000

  7 S  3.05390000E-02  1.000000

  8 S  5.00000000E-03  1.000000

  9 P  5.53345250E+02 -0.001610
  9 P  1.09255010E+02 -0.011087
  9 P  2.34760300E+01 -0.046619
  9 P  6.79447200E+00  0.644153
  9 P  5.43231900E+00 -0.520455
  9 P  2.70216900E+00 -0.631154

 10 P  5.53345250E+02 -0.001075
 10 P  1.09255010E+02 -0.008042
 10 P  2.34760300E+01 -0.027969
 10 P  6.79447200E+00  0.469049
 10 P  5.43231900E+00 -0.492639
 10 P  2.70216900E+00 -0.375766

 11 P  1.49385700E+00  1.000000

 12 P  7.92817000E-01  1.000000

 13 P  3.51542000E-01  1.000000

 14 P  1.43962000E-01  1.000000

 15 P  5.00000000E-03  1.000000

 16 D  8.12028580E+01 -0.001620
 16 D  1.83255750E+01 -0.025181
 16 D  1.04546990E+01  0.089632
 16 D  3.66631200E+00 -0.409429
 16 D  1.92334900E+00 -0.482260
 16 D  9.89638000E-01 -0.210903

 17 D  8.12028580E+01 -0.000639
 17 D  1.83255750E+01 -0.007021
 17 D  1.04546990E+01  0.026642
 17 D  3.66631200E+00 -0.157132
 17 D  1.92334900E+00 -0.157572
 17 D  9.89638000E-01 -0.001100

 18 D  4.95346000E-01  1.000000

 19 D  2.04455000E-01  1.000000

 20 D  7.32730000E-02  1.000000

 21 D  5.00000000E-03  1.000000

 22 F  5.53345250E+01  0.001294
 22 F  1.65886490E+01  0.009857
 22 F  4.75751800E+00  0.130386
 22 F  2.38755000E+00  0.318083
 22 F  1.13019500E+00  0.395314

 23 F  4.89535000E-01  1.000000

 24 F  1.81420000E-01  1.000000

 25 F  5.00000000E-03  1.000000

  O1 (Oxygen)
  -----------
            Exponent  Coefficients 
       -------------- ---------------------------------------------------------
  1 S  1.53300000E+04  0.000508
  1 S  2.29900000E+03  0.003929
  1 S  5.22400000E+02  0.020243
  1 S  1.47300000E+02  0.079181
  1 S  4.75500000E+01  0.230687
  1 S  1.67600000E+01  0.433118
  1 S  6.20700000E+00  0.350260
  1 S  6.88200000E-01 -0.008154

  2 S  1.53300000E+04 -0.000115
  2 S  2.29900000E+03 -0.000895
  2 S  5.22400000E+02 -0.004636
  2 S  1.47300000E+02 -0.018724
  2 S  4.75500000E+01 -0.058463
  2 S  1.67600000E+01 -0.136463
  2 S  6.20700000E+00 -0.175740
  2 S  6.88200000E-01  0.603418

  3 S  1.75200000E+00  1.000000

  4 S  2.38400000E-01  1.000000

  5 S  7.37600000E-02  1.000000

  6 P  3.44600000E+01  0.015928
  6 P  7.74900000E+00  0.099740
  6 P  2.28000000E+00  0.310492

  7 P  7.15600000E-01  1.000000

  8 P  2.14000000E-01  1.000000

  9 P  5.97400000E-02  1.000000

 10 D  2.31400000E+00  1.000000

 11 D  6.45000000E-01  1.000000

 12 D  2.14000000E-01  1.000000

 13 F  1.42800000E+00  1.000000

 14 F  5.00000000E-01  1.000000

  O (Oxygen)
  ----------
            Exponent  Coefficients 
       -------------- ---------------------------------------------------------
  1 S  4.71055180E+01 -0.014408
  1 S  5.91134600E+00  0.129568
  1 S  9.76483000E-01 -0.563118

  2 S  2.96070000E-01  1.000000

  3 P  1.66922190E+01  0.044856
  3 P  3.90070200E+00  0.222613
  3 P  1.07825300E+00  0.500188

  4 P  2.84189000E-01  1.000000

  5 P  7.02000000E-02  1.000000

  C (Carbon)
  ----------
            Exponent  Coefficients 
       -------------- ---------------------------------------------------------
  1 S  2.26310100E+00  0.496548
  1 S  1.77318600E+00 -0.422391
  1 S  4.08619000E-01 -0.599356

  2 S  1.39175000E-01  1.000000

  3 P  8.38302500E+00 -0.038544
  3 P  1.99313200E+00 -0.203185
  3 P  5.59543000E-01 -0.498176

  4 P  1.56126000E-01  1.000000



 Summary of "aoBasis" -> "" (cartesian)
 ------------------------------------------------------------------------------
       Tag                 Description            Shells   Functions and Types
 ---------------- ------------------------------  ------  ---------------------
 U                   Stuttgart RSC 1997 ECP         25      105   8s7p6d4f
 O1                       aug-cc-pvtz               14       55   5s4p3d2f
 O                     Stuttgart RLC ECP             5       11   2s3p
 C                     Stuttgart RLC ECP             4        8   2s2p



 **** WARNING Zero Coefficient **** on atom "               U"
 angular momentum value:-1  standard basis set name: "Stuttgart RSC 1997 ECP"
 input line that generated warning:
  3840: 2      1.000000000            0.000000000
  
 Local ECP potential is zero and ignored
  

 **** WARNING Zero Coefficient **** on atom "               O"
 angular momentum value:-1  standard basis set name: "Stuttgart RLC ECP"
 input line that generated warning:
  1519: 2      1.000000000            0.000000000
  
 Local ECP potential is zero and ignored
  

 **** WARNING Zero Coefficient **** on atom "               C"
 angular momentum value:-1  standard basis set name: "Stuttgart RLC ECP"
 input line that generated warning:
  1497: 2      1.000000000            0.000000000
  
 Local ECP potential is zero and ignored
  
                 ECP       "ecpPotential" -> "" (cartesian)
                -----
  U (Uranium) Replaces    60 electrons
  ------------------------------------
          R-exponent    Exponent     Coefficients 
         ------------ ---------------------------------------------------------
  1 U-s      2.00       16.414039     536.516628

  2 U-p      2.00        9.060556     169.544925

  3 U-d      2.00        8.831832     142.615598

  4 U-f      2.00        7.018516      60.393076

  5 U-g      2.00       12.804088     -60.129990

  O (Oxygen) Replaces     2 electrons
  -----------------------------------
          R-exponent    Exponent     Coefficients 
         ------------ ---------------------------------------------------------
  1 U-s      2.00       10.445670      50.771069

  2 U-p      2.00       18.045174      -4.903551

  3 U-d      2.00        8.164798      -3.312124

  C (Carbon) Replaces     2 electrons
  -----------------------------------
          R-exponent    Exponent     Coefficients 
         ------------ ---------------------------------------------------------
  1 U-s      2.00        6.401052      33.121638

  2 U-p      2.00        7.307747      -1.986257

  3 U-d      2.00        5.961796      -9.454318


                                 NWChem DFT Module
                                 -----------------


  Caching 1-el integrals 

            General Information
            -------------------
          SCF calculation type: DFT
          Wavefunction type:  closed shell.
          No. of atoms     :    15
          No. of electrons :   114
           Alpha electrons :    57
            Beta electrons :    57
          Charge           :    -4
          Spin multiplicity:     1
          Use of symmetry is: off; symmetry adaption is: off
          Maximum number of iterations: ***
          This is a Direct SCF calculation.
          AO basis - number of functions:   338
                     number of shells:   110
          Convergence on energy requested: 1.00D-06
          Convergence on density requested: 1.00D-05
          Convergence on gradient requested: 5.00D-04

              XC Information
              --------------
                        Slater Exchange Functional  1.000 local    
                      VWN V Correlation Functional  1.000 local    

             Grid Information
             ----------------
          Grid used for XC integration:  medium    
          Radial quadrature: Mura-Knowles        
          Angular quadrature: Lebedev. 
          Tag              B.-S. Rad. Rad. Pts. Rad. Cut. Ang. Pts.
          ---              ---------- --------- --------- ---------
          U                   1.75      123          25.0       590
          O1                  0.60       49          13.0       434
          O                   0.60       49          17.0       434
          C                   0.70       49          15.0       434
          Grid pruning is: on 
          Number of quadrature shells:   809
          Spatial weights used:  Erf1

          Convergence Information
          -----------------------
          Convergence aids based upon iterative change in 
          total energy or number of iterations. 
          Levelshifting, if invoked, occurs when the 
          HOMO/LUMO gap drops below (HL_TOL): 1.00D-02
          DIIS, if invoked, will attempt to extrapolate 
          using up to (NFOCK): 10 stored Fock matrices.

                    Damping( 0%)  Levelshifting(0.5)       DIIS
                  --------------- ------------------- ---------------
          dE  on:    start            ASAP                start   
          dE off:    2 iters        *** iters           *** iters 


      Screening Tolerance Information
      -------------------------------
          Density screening/tol_rho: 1.00D-10
          AO Gaussian exp screening on grid/accAOfunc:  14
          CD Gaussian exp screening on grid/accCDfunc:  20
          XC Gaussian exp screening on grid/accXCfunc:  20
          Schwarz screening/accCoul: 1.00D-08


 WARNING : Found     5 linear dependencies 
 S eigenvalue threshold:     1.00000E-05
 Smallest S eigenvalue :     3.39765E-07
 Largest  S eigenvalue :     4.77771E-06


 !! The overlap matrix has   5 vectors deemed linearly dependent with
    eigenvalues:
 3.40D-07 2.65D-06 3.96D-06 4.77D-06 4.78D-06


 Loading old vectors from job with title :



   Time after variat. SCF:      8.4
   Time prior to 1st pass:      8.4

 Grid_pts file          = ./nmrrun.gridpts.0
 Record size in doubles =  12289        No. of grid_pts per rec  =   3070
 Max. records in memory =    172        Max. recs in file   =    859429

 Grid integrated density:     114.013948456647
 Requested integration accuracy:   0.10E-05

           Memory utilization after 1st SCF pass: 
           Heap Space remaining (MW):       10.96            10958134
          Stack Space remaining (MW):      196.61           196605968

   convergence    iter        energy       DeltaE   RMS-Dens  Diis-err    time
 ---------------- ----- ----------------- --------- --------- ---------  ------
 d= 0,ls=0.5,diis     1   -669.2954731583 -1.63D+03  3.49D-03  2.05D-01   349.2
 Grid integrated density:     114.014046343253
 Requested integration accuracy:   0.10E-05
 d= 0,ls=0.5,diis     2   -669.3010750961 -5.60D-03  1.14D-03  4.32D-02   687.7
 Grid integrated density:     114.013914619698
 Requested integration accuracy:   0.10E-05
 d= 0,ls=0.5,diis     3   -669.3033192806 -2.24D-03  6.23D-04  2.05D-02  1026.1
 Grid integrated density:     114.013778404111
 Requested integration accuracy:   0.10E-05
 d= 0,ls=0.5,diis     4   -669.3045288216 -1.21D-03  2.83D-04  2.08D-03  1364.5
 Grid integrated density:     114.013700048812
 Requested integration accuracy:   0.10E-05
 d= 0,ls=0.5,diis     5   -669.3047263126 -1.97D-04  1.76D-04  2.48D-04  1702.9
 Grid integrated density:     114.013647437550
 Requested integration accuracy:   0.10E-05
 d= 0,ls=0.5,diis     6   -669.3047703406 -4.40D-05  7.48D-05  4.87D-05  2041.2
 Grid integrated density:     114.013624339674
 Requested integration accuracy:   0.10E-05
 d= 0,ls=0.5,diis     7   -669.3047855267 -1.52D-05  7.33D-05  2.57D-05  2379.6
 Grid integrated density:     114.013601898403
 Requested integration accuracy:   0.10E-05
 d= 0,ls=0.5,diis     8   -669.3047957397 -1.02D-05  7.62D-05  1.28D-05  2717.9
 Grid integrated density:     114.013580227621
 Requested integration accuracy:   0.10E-05
 d= 0,ls=0.5,diis     9   -669.3048033306 -7.59D-06  6.01D-05  9.14D-06  3056.2
 Grid integrated density:     114.013564207682
 Requested integration accuracy:   0.10E-05
 d= 0,ls=0.5,diis    10   -669.3048086127 -5.28D-06  3.25D-05  7.07D-06  3394.6
 Grid integrated density:     114.013563855078
 Requested integration accuracy:   0.10E-05
 d= 0,ls=0.5,diis    11   -669.3048098908 -1.28D-06  2.54D-05  1.27D-05  3733.1
 Grid integrated density:     114.013563243590
 Requested integration accuracy:   0.10E-05
 d= 0,ls=0.5,diis    12   -669.3048109754 -1.08D-06  2.57D-05  1.64D-05  4071.8
 Grid integrated density:     114.013562383985
 Requested integration accuracy:   0.10E-05
 d= 0,ls=0.5,diis    13   -669.3048122191 -1.24D-06  3.40D-05  1.73D-05  4410.5
 Grid integrated density:     114.013559130393
 Requested integration accuracy:   0.10E-05
 d= 0,ls=0.5,diis    14   -669.3048140742 -1.86D-06  3.61D-05  1.51D-05  4749.1
 Grid integrated density:     114.013555114745
 Requested integration accuracy:   0.10E-05
 d= 0,ls=0.5,diis    15   -669.3048159610 -1.89D-06  3.85D-05  1.30D-05  5087.8
 Grid integrated density:     114.013550463810
 Requested integration accuracy:   0.10E-05
 d= 0,ls=0.5,diis    16   -669.3048178542 -1.89D-06  3.08D-05  9.20D-06  5426.4
 Grid integrated density:     114.013548543818
 Requested integration accuracy:   0.10E-05
 d= 0,ls=0.5,diis    17   -669.3048190377 -1.18D-06  3.34D-05  8.49D-06  5765.1
 Grid integrated density:     114.013545934244
 Requested integration accuracy:   0.10E-05
 d= 0,ls=0.5,diis    18   -669.3048201780 -1.14D-06  2.05D-05  7.75D-06  6103.8
 Grid integrated density:     114.013547327098
 Requested integration accuracy:   0.10E-05
 d= 0,ls=0.5,diis    19   -669.3048205087 -3.31D-07  1.80D-05  9.19D-06  6442.5
 Grid integrated density:     114.013549790031
 Requested integration accuracy:   0.10E-05
 d= 0,ls=0.5,diis    20   -669.3048205941 -8.54D-08  1.63D-05  1.14D-05  6781.3
 Grid integrated density:     114.013552847839
 Requested integration accuracy:   0.10E-05
 d= 0,ls=0.5,diis    21   -669.3048206331 -3.90D-08  1.66D-05  1.31D-05  7119.8
 Grid integrated density:     114.013555509827
 Requested integration accuracy:   0.10E-05
 d= 0,ls=0.5,diis    22   -669.3048207975 -1.64D-07  1.66D-05  1.38D-05  7468.7
 Grid integrated density:     114.013557554175
 Requested integration accuracy:   0.10E-05
 d= 0,ls=0.5,diis    23   -669.3048211576 -3.60D-07  4.29D-05  1.33D-05  7832.4
 Grid integrated density:     114.013552162070
 Requested integration accuracy:   0.10E-05
 d= 0,ls=0.5,diis    24   -669.3048228105 -1.65D-06  2.18D-05  8.27D-06  8172.9
 Grid integrated density:     114.013551781321
 Requested integration accuracy:   0.10E-05
 d= 0,ls=0.5,diis    25   -669.3048233075 -4.97D-07  2.99D-05  7.98D-06  8511.6
 Grid integrated density:     114.013549195682
 Requested integration accuracy:   0.10E-05
 d= 0,ls=0.5,diis    26   -669.3048241844 -8.77D-07  3.47D-05  5.04D-06  8850.2
 Grid integrated density:     114.013544598397
 Requested integration accuracy:   0.10E-05
 d= 0,ls=0.5,diis    27   -669.3048250925 -9.08D-07  3.78D-05  3.64D-06  9188.8
 Grid integrated density:     114.013538150184
 Requested integration accuracy:   0.10E-05
 d= 0,ls=0.5,diis    28   -669.3048260017 -9.09D-07  1.54D-05  2.01D-06  9527.4
 Grid integrated density:     114.013537830476
 Requested integration accuracy:   0.10E-05
 d= 0,ls=0.5,diis    29   -669.3048262096 -2.08D-07  1.59D-05  2.65D-06  9866.0
 Grid integrated density:     114.013537346706
 Requested integration accuracy:   0.10E-05
 d= 0,ls=0.5,diis    30   -669.3048264506 -2.41D-07  1.21D-05  2.82D-06 10204.7
 Grid integrated density:     114.013538258538
 Requested integration accuracy:   0.10E-05
 d= 0,ls=0.5,diis    31   -669.3048265397 -8.91D-08  2.95D-05  3.53D-06 10543.3
 Grid integrated density:     114.013533862741
 Requested integration accuracy:   0.10E-05
 d= 0,ls=0.5,diis    32   -669.3048271816 -6.42D-07  1.40D-05  1.63D-06 10881.9
 Grid integrated density:     114.013532937203
 Requested integration accuracy:   0.10E-05
 d= 0,ls=0.5,diis    33   -669.3048273704 -1.89D-07  8.50D-06  2.16D-06 11220.6
 Grid integrated density:     114.013534102785
 Requested integration accuracy:   0.10E-05


         Total DFT energy =     -669.304827454948
      One electron energy =    -3096.928671321541
           Coulomb energy =     1539.947661536909
    Exchange-Corr. energy =      -71.780672193562
 Nuclear repulsion energy =      959.456854523245

 Numeric. integr. density =      114.013534102785

     Total iterative time =  11550.3s



                       DFT Final Molecular Orbital Analysis
                       ------------------------------------

 Vector    9  Occ=2.000000D+00  E=-3.301732D+00
              MO Center= -6.2D-03,  2.6D-04, -1.1D-04, r^2= 2.5D-01
   Bfn.  Coefficient  Atom+Function         Bfn.  Coefficient  Atom+Function  
  ----- ------------  ---------------      ----- ------------  ---------------
    35      1.001933   1 U  dzz              30     -0.508450   1 U  dxx       
    33     -0.490655   1 U  dyy              34      0.259189   1 U  dyz       

 Vector   10  Occ=2.000000D+00  E=-1.391570D+00
              MO Center= -7.5D-03,  2.6D-04, -2.6D-04, r^2= 7.0D-01
   Bfn.  Coefficient  Atom+Function         Bfn.  Coefficient  Atom+Function  
  ----- ------------  ---------------      ----- ------------  ---------------
     4      0.723673   1 U  s                 5      0.643425   1 U  s         
     3     -0.480685   1 U  s                 2      0.458517   1 U  s         
    30     -0.228610   1 U  dxx              33     -0.228326   1 U  dyy       
    35     -0.199511   1 U  dzz              36      0.161318   1 U  dxx       
    39      0.161155   1 U  dyy               1     -0.156105   1 U  s         

 Vector   11  Occ=2.000000D+00  E=-6.628864D-01
              MO Center= -1.2D+00, -1.7D-01, -1.5D-04, r^2= 6.5D+00
   Bfn.  Coefficient  Atom+Function         Bfn.  Coefficient  Atom+Function  
  ----- ------------  ---------------      ----- ------------  ---------------
   323      0.248690  14 C  s               331     -0.228503  15 C  s         

 Vector   12  Occ=2.000000D+00  E=-6.602461D-01
              MO Center= -9.8D-01,  1.3D-01, -1.2D-03, r^2= 8.3D+00
   Bfn.  Coefficient  Atom+Function         Bfn.  Coefficient  Atom+Function  
  ----- ------------  ---------------      ----- ------------  ---------------
   331      0.251071  15 C  s               323      0.237360  14 C  s         

 Vector   13  Occ=2.000000D+00  E=-6.587118D-01
              MO Center= -1.7D-01,  4.1D-02, -1.7D-03, r^2= 2.7D+00
   Bfn.  Coefficient  Atom+Function         Bfn.  Coefficient  Atom+Function  
  ----- ------------  ---------------      ----- ------------  ---------------
    20      0.376324   1 U  pz               14      0.301610   1 U  pz        
    23      0.273248   1 U  pz               26     -0.247456   1 U  pz        
   109     -0.195261   2 O  s               164      0.193837   3 O  s         
    17     -0.180430   1 U  pz              107     -0.155148   2 O  s         
   162      0.154669   3 O  s         

 Vector   14  Occ=2.000000D+00  E=-6.560001D-01
              MO Center=  2.6D+00, -5.1D-03, -6.0D-05, r^2= 3.9D+00
   Bfn.  Coefficient  Atom+Function         Bfn.  Coefficient  Atom+Function  
  ----- ------------  ---------------      ----- ------------  ---------------
   315      0.342607  13 C  s               216      0.255667   4 O  s         
   217     -0.239546   4 O  s                 6      0.221208   1 U  s         
   227      0.151968   5 O  s               228     -0.152234   5 O  s         
   238      0.152453   6 O  s               239     -0.152654   6 O  s         

 Vector   15  Occ=2.000000D+00  E=-5.571826D-01
              MO Center=  1.4D+00, -1.1D-01, -2.3D-03, r^2= 7.5D+00
   Bfn.  Coefficient  Atom+Function         Bfn.  Coefficient  Atom+Function  
  ----- ------------  ---------------      ----- ------------  ---------------
   216      0.238416   4 O  s               217     -0.233709   4 O  s         
   317      0.224999  13 C  px               24      0.186074   1 U  px        
    18      0.174429   1 U  px              239      0.164271   6 O  s         
    12      0.160405   1 U  px              228      0.160740   5 O  s         
    21      0.158253   1 U  px              238     -0.158698   6 O  s         

 Vector   16  Occ=2.000000D+00  E=-5.558931D-01
              MO Center= -1.3D+00,  9.3D-02,  1.9D-03, r^2= 9.0D+00
   Bfn.  Coefficient  Atom+Function         Bfn.  Coefficient  Atom+Function  
  ----- ------------  ---------------      ----- ------------  ---------------
   304     -0.232918  12 O  s               305      0.233205  12 O  s         
   271      0.224234   9 O  s               272     -0.224478   9 O  s         
    25     -0.192109   1 U  py               19     -0.164598   1 U  py        
   334     -0.158746  15 C  py               13     -0.153789   1 U  py        
    22     -0.152814   1 U  py              326     -0.151234  14 C  py        

 Vector   17  Occ=2.000000D+00  E=-5.452012D-01
              MO Center= -4.3D-01,  2.0D-02, -5.6D-04, r^2= 1.1D+01
   Bfn.  Coefficient  Atom+Function         Bfn.  Coefficient  Atom+Function  
  ----- ------------  ---------------      ----- ------------  ---------------
   305      0.210953  12 O  s               272      0.209422   9 O  s         
   304     -0.204697  12 O  s               271     -0.203217   9 O  s         
   326      0.156227  14 C  py              334     -0.156885  15 C  py        

 Vector   18  Occ=2.000000D+00  E=-5.200239D-01
              MO Center= -8.4D-01, -1.6D-01,  3.6D-03, r^2= 6.2D+00
   Bfn.  Coefficient  Atom+Function         Bfn.  Coefficient  Atom+Function  
  ----- ------------  ---------------      ----- ------------  ---------------
   250      0.262484   7 O  s               294      0.243185  11 O  s         
   249     -0.238863   7 O  s               293     -0.221448  11 O  s         
   261     -0.205460   8 O  s               260      0.190498   8 O  s         
   283     -0.183440  10 O  s               282      0.170215  10 O  s         
   325     -0.165009  14 C  px              333     -0.153752  15 C  px        

 Vector   19  Occ=2.000000D+00  E=-5.191434D-01
              MO Center= -1.1D+00,  1.8D-01, -2.3D-03, r^2= 5.7D+00
   Bfn.  Coefficient  Atom+Function         Bfn.  Coefficient  Atom+Function  
  ----- ------------  ---------------      ----- ------------  ---------------
   283      0.255463  10 O  s               261     -0.234623   8 O  s         
   282     -0.234703  10 O  s               260      0.215454   8 O  s         
   294     -0.205342  11 O  s               250      0.183127   7 O  s         
   293      0.183978  11 O  s               249     -0.163867   7 O  s         

 Vector   20  Occ=2.000000D+00  E=-5.042989D-01
              MO Center=  2.0D+00, -1.9D-02,  7.3D-04, r^2= 2.9D+00
   Bfn.  Coefficient  Atom+Function         Bfn.  Coefficient  Atom+Function  
  ----- ------------  ---------------      ----- ------------  ---------------
   228      0.317909   5 O  s               239     -0.317152   6 O  s         
   227     -0.284442   5 O  s               238      0.283722   6 O  s         
   318      0.222930  13 C  py        

 Vector   21  Occ=2.000000D+00  E=-4.487359D-01
              MO Center=  5.0D-02,  6.0D-04,  1.8D-04, r^2= 2.7D+00
   Bfn.  Coefficient  Atom+Function         Bfn.  Coefficient  Atom+Function  
  ----- ------------  ---------------      ----- ------------  ---------------
    18      0.495472   1 U  px               12      0.414418   1 U  px        
    21      0.384607   1 U  px               15     -0.233720   1 U  px        
    24      0.173705   1 U  px        

 Vector   22  Occ=2.000000D+00  E=-4.470122D-01
              MO Center=  2.2D-03,  8.4D-04, -2.4D-04, r^2= 2.8D+00
   Bfn.  Coefficient  Atom+Function         Bfn.  Coefficient  Atom+Function  
  ----- ------------  ---------------      ----- ------------  ---------------
    19      0.520765   1 U  py               13      0.437352   1 U  py        
    22      0.406971   1 U  py               16     -0.246352   1 U  py        
    25      0.197020   1 U  py        

 Vector   23  Occ=2.000000D+00  E=-4.425861D-01
              MO Center=  5.0D-02, -1.0D-03,  2.5D-03, r^2= 3.1D+00
   Bfn.  Coefficient  Atom+Function         Bfn.  Coefficient  Atom+Function  
  ----- ------------  ---------------      ----- ------------  ---------------
     5      0.345433   1 U  s               107     -0.250360   2 O  s         
   162     -0.250649   3 O  s                18      0.197342   1 U  px        
    12      0.165582   1 U  px               21      0.153169   1 U  px        

 Vector   24  Occ=2.000000D+00  E=-2.394109D-01
              MO Center=  4.2D-03, -1.1D-04, -3.8D-04, r^2= 3.3D+00
   Bfn.  Coefficient  Atom+Function         Bfn.  Coefficient  Atom+Function  
  ----- ------------  ---------------      ----- ------------  ---------------
    20      0.411692   1 U  pz               14      0.329453   1 U  pz        
    23      0.307920   1 U  pz              107      0.233099   2 O  s         
   162     -0.233104   3 O  s                17     -0.185261   1 U  pz        
    26     -0.184551   1 U  pz        

 Vector   25  Occ=2.000000D+00  E=-9.836801D-02
              MO Center=  2.0D-01,  7.8D-03, -5.2D-04, r^2= 9.2D+00
   Bfn.  Coefficient  Atom+Function         Bfn.  Coefficient  Atom+Function  
  ----- ------------  ---------------      ----- ------------  ---------------
     5      0.252972   1 U  s               315     -0.216324  13 C  s         
   110      0.207947   2 O  s               165      0.207774   3 O  s         
   331     -0.204202  15 C  s               323     -0.203156  14 C  s         
    59     -0.198912   1 U  dzz              57     -0.187670   1 U  dyy       
    54     -0.180986   1 U  dxx             295     -0.156975  11 O  px        

 Vector   26  Occ=2.000000D+00  E=-7.799363D-02
              MO Center= -7.6D-01,  7.5D-03,  2.7D-04, r^2= 9.3D+00
   Bfn.  Coefficient  Atom+Function         Bfn.  Coefficient  Atom+Function  
  ----- ------------  ---------------      ----- ------------  ---------------
   323     -0.239427  14 C  s               331      0.240153  15 C  s         
   250     -0.222490   7 O  s               294      0.223150  11 O  s         
   251     -0.200615   7 O  px              295      0.200404  11 O  px        
   261     -0.158478   8 O  s               283      0.158986  10 O  s         
   272     -0.152287   9 O  s               305      0.152741  12 O  s         

 Vector   27  Occ=2.000000D+00  E=-7.495056D-02
              MO Center=  9.2D-01, -1.7D-02, -4.2D-04, r^2= 1.0D+01
   Bfn.  Coefficient  Atom+Function         Bfn.  Coefficient  Atom+Function  
  ----- ------------  ---------------      ----- ------------  ---------------
   315      0.283316  13 C  s               228      0.213374   5 O  s         
   239      0.214143   6 O  s               217      0.198566   4 O  s         
   218      0.190576   4 O  px              316     -0.179428  13 C  s         
   323     -0.158980  14 C  s               331     -0.156554  15 C  s         

 Vector   28  Occ=2.000000D+00  E=-5.425094D-02
              MO Center=  8.7D-02, -5.3D-02,  3.5D-04, r^2= 1.0D+01
   Bfn.  Coefficient  Atom+Function         Bfn.  Coefficient  Atom+Function  
  ----- ------------  ---------------      ----- ------------  ---------------
   318      0.238645  13 C  py              240     -0.175777   6 O  px        
   229      0.173353   5 O  px              274     -0.170841   9 O  py        
    55      0.169788   1 U  dxy             307     -0.168075  12 O  py        
   325     -0.164685  14 C  px              305     -0.162314  12 O  s         
   272      0.159852   9 O  s                49      0.158729   1 U  dxy       

 Vector   29  Occ=2.000000D+00  E=-5.313803D-02
              MO Center= -4.5D-01,  5.2D-02, -3.0D-04, r^2= 8.9D+00
   Bfn.  Coefficient  Atom+Function         Bfn.  Coefficient  Atom+Function  
  ----- ------------  ---------------      ----- ------------  ---------------
   285      0.203405  10 O  py              333      0.198594  15 C  px        
   263     -0.191464   8 O  py              325      0.184091  14 C  px        
   295      0.167917  11 O  px              251      0.162945   7 O  px        
   283     -0.158715  10 O  s               218     -0.156549   4 O  px        
   217     -0.154350   4 O  s         

 Vector   30  Occ=2.000000D+00  E=-4.802085D-02
              MO Center= -1.4D+00, -3.4D-01, -1.0D-03, r^2= 7.6D+00
   Bfn.  Coefficient  Atom+Function         Bfn.  Coefficient  Atom+Function  
  ----- ------------  ---------------      ----- ------------  ---------------
   327      0.302621  14 C  pz              335     -0.261521  15 C  pz        
   275     -0.191595   9 O  pz              264     -0.180093   8 O  pz        
   253     -0.179073   7 O  pz              308      0.165578  12 O  pz        
   330     -0.165026  14 C  pz              297      0.156324  11 O  pz        
   286      0.154245  10 O  pz        

 Vector   31  Occ=2.000000D+00  E=-4.707052D-02
              MO Center= -1.3D+00,  3.5D-01,  4.2D-04, r^2= 7.8D+00
   Bfn.  Coefficient  Atom+Function         Bfn.  Coefficient  Atom+Function  
  ----- ------------  ---------------      ----- ------------  ---------------
    26      0.342671   1 U  pz              335      0.300549  15 C  pz        
   327      0.259580  14 C  pz              109      0.218158   2 O  s         
   164     -0.213885   3 O  s               308     -0.189896  12 O  pz        
   286     -0.185260  10 O  pz               93     -0.173660   1 U  fyyz      
   297     -0.172916  11 O  pz               95      0.166889   1 U  fzzz      

 Vector   32  Occ=2.000000D+00  E=-4.348080D-02
              MO Center=  2.8D+00, -1.7D-02,  7.9D-05, r^2= 2.3D+00
   Bfn.  Coefficient  Atom+Function         Bfn.  Coefficient  Atom+Function  
  ----- ------------  ---------------      ----- ------------  ---------------
   319      0.397312  13 C  pz              220     -0.289874   4 O  pz        
    26      0.279239   1 U  pz              231     -0.215879   5 O  pz        
   242     -0.216247   6 O  pz              322     -0.215460  13 C  pz        
   109      0.181150   2 O  s               164     -0.180631   3 O  s         
   223     -0.163505   4 O  pz        

 Vector   33  Occ=2.000000D+00  E=-3.300187D-02
              MO Center= -7.6D-01, -2.2D-04,  1.5D-04, r^2= 1.3D+01
   Bfn.  Coefficient  Atom+Function         Bfn.  Coefficient  Atom+Function  
  ----- ------------  ---------------      ----- ------------  ---------------
   272      0.208576   9 O  s               305      0.207947  12 O  s         
    59     -0.206667   1 U  dzz             334      0.200886  15 C  py        
   326     -0.198424  14 C  py              274     -0.196456   9 O  py        
   307      0.196285  12 O  py              110      0.168116   2 O  s         
   165      0.168018   3 O  s               218      0.163830   4 O  px        

 Vector   34  Occ=2.000000D+00  E=-3.063695D-02
              MO Center=  4.8D-01,  3.2D-03,  2.4D-05, r^2= 8.4D+00
   Bfn.  Coefficient  Atom+Function         Bfn.  Coefficient  Atom+Function  
  ----- ------------  ---------------      ----- ------------  ---------------
   318      0.240820  13 C  py               67      0.184176   1 U  fxxy      
   333     -0.185061  15 C  px              325      0.182615  14 C  px        
   219     -0.170330   4 O  py              229      0.169448   5 O  px        
   240     -0.168641   6 O  px              228     -0.166116   5 O  s         
   239      0.164821   6 O  s               295     -0.151520  11 O  px        

 Vector   35  Occ=2.000000D+00  E=-2.178290D-02
              MO Center= -1.6D+00, -5.2D-02,  8.6D-04, r^2= 8.8D+00
   Bfn.  Coefficient  Atom+Function         Bfn.  Coefficient  Atom+Function  
  ----- ------------  ---------------      ----- ------------  ---------------
   326      0.251748  14 C  py              334      0.248248  15 C  py        
    94     -0.213985   1 U  fyzz            261      0.215035   8 O  s         
   283     -0.214731  10 O  s                55      0.208622   1 U  dxy       
   272     -0.206446   9 O  s               305      0.199246  12 O  s         
   273      0.155156   9 O  px              306     -0.153494  12 O  px        

 Vector   36  Occ=2.000000D+00  E=-2.169462D-02
              MO Center=  2.1D+00,  5.0D-02, -1.1D-03, r^2= 7.7D+00
   Bfn.  Coefficient  Atom+Function         Bfn.  Coefficient  Atom+Function  
  ----- ------------  ---------------      ----- ------------  ---------------
   317      0.314708  13 C  px              218      0.299788   4 O  px        
   217      0.276383   4 O  s               241     -0.210146   6 O  py        
   230      0.207913   5 O  py              239     -0.171544   6 O  s         
    91     -0.169259   1 U  fxzz            228     -0.167457   5 O  s         

 Vector   37  Occ=2.000000D+00  E= 4.468657D-02
              MO Center= -3.3D-02, -3.5D-04, -1.5D-03, r^2= 6.7D+00
   Bfn.  Coefficient  Atom+Function         Bfn.  Coefficient  Atom+Function  
  ----- ------------  ---------------      ----- ------------  ---------------
     6      0.341525   1 U  s               116      0.191935   2 O  pz        
   171     -0.191494   3 O  pz               51     -0.170825   1 U  dyy       
   113      0.170916   2 O  pz              168     -0.170486   3 O  pz        
    48     -0.164378   1 U  dxx              41      0.155145   1 U  dzz       
   252     -0.152995   7 O  py              296      0.153048  11 O  py        

 Vector   38  Occ=2.000000D+00  E= 5.690268D-02
              MO Center= -1.4D-01, -1.5D-02, -2.2D-02, r^2= 4.9D+00
   Bfn.  Coefficient  Atom+Function         Bfn.  Coefficient  Atom+Function  
  ----- ------------  ---------------      ----- ------------  ---------------
   115      0.235241   2 O  py              170     -0.230849   3 O  py        
    52     -0.222918   1 U  dyz              46     -0.214502   1 U  dyz       
   112      0.213456   2 O  py              167     -0.209567   3 O  py        
    40     -0.205943   1 U  dyz              58     -0.185987   1 U  dyz       

 Vector   39  Occ=2.000000D+00  E= 5.695056D-02
              MO Center=  2.1D-01,  9.7D-03, -2.8D-02, r^2= 4.9D+00
   Bfn.  Coefficient  Atom+Function         Bfn.  Coefficient  Atom+Function  
  ----- ------------  ---------------      ----- ------------  ---------------
   114      0.235528   2 O  px              169     -0.230542   3 O  px        
    50     -0.225207   1 U  dxz              44     -0.219421   1 U  dxz       
   111      0.213804   2 O  px               38     -0.209568   1 U  dxz       
   166     -0.209317   3 O  px               56     -0.169780   1 U  dxz       
   220      0.153583   4 O  pz        

 Vector   40  Occ=2.000000D+00  E= 7.245288D-02
              MO Center= -2.4D-01,  8.8D-03,  2.2D-02, r^2= 4.2D+00
   Bfn.  Coefficient  Atom+Function         Bfn.  Coefficient  Atom+Function  
  ----- ------------  ---------------      ----- ------------  ---------------
    74      0.684054   1 U  fyzz             94      0.395254   1 U  fyzz      
    84      0.346676   1 U  fyzz            170      0.229240   3 O  py        
   115      0.224692   2 O  py              167      0.202596   3 O  py        
   112      0.198459   2 O  py               72     -0.173250   1 U  fyyy      
    67     -0.160143   1 U  fxxy             73      0.157509   1 U  fyyz      

 Vector   41  Occ=2.000000D+00  E= 7.388019D-02
              MO Center=  1.8D-01, -1.1D-03,  2.1D-02, r^2= 4.1D+00
   Bfn.  Coefficient  Atom+Function         Bfn.  Coefficient  Atom+Function  
  ----- ------------  ---------------      ----- ------------  ---------------
    71      0.699496   1 U  fxzz             91      0.353879   1 U  fxzz      
    81      0.347490   1 U  fxzz            169      0.230851   3 O  px        
   114      0.226706   2 O  px              166      0.204649   3 O  px        
   111      0.200888   2 O  px               69     -0.175063   1 U  fxyy      
    66     -0.173590   1 U  fxxx      

 Vector   42  Occ=2.000000D+00  E= 8.053406D-02
              MO Center= -4.3D-02, -3.2D-03, -2.1D-03, r^2= 6.2D+00
   Bfn.  Coefficient  Atom+Function         Bfn.  Coefficient  Atom+Function  
  ----- ------------  ---------------      ----- ------------  ---------------
     5      0.506125   1 U  s               110      0.279401   2 O  s         
   165      0.278968   3 O  s                59     -0.231500   1 U  dzz       
   116     -0.215918   2 O  pz              171      0.215136   3 O  pz        
    47     -0.187014   1 U  dzz             113     -0.186550   2 O  pz        
   168      0.185881   3 O  pz                6      0.177890   1 U  s         

 Vector   43  Occ=2.000000D+00  E= 9.915805D-02
              MO Center=  6.9D-01, -3.5D-03,  2.4D-04, r^2= 6.8D+00
   Bfn.  Coefficient  Atom+Function         Bfn.  Coefficient  Atom+Function  
  ----- ------------  ---------------      ----- ------------  ---------------
   240      0.258194   6 O  px              229      0.256905   5 O  px        
   252      0.216132   7 O  py              296     -0.215828  11 O  py        
   232      0.178301   5 O  px              243      0.179045   6 O  px        
    71     -0.173968   1 U  fxzz             18      0.154583   1 U  px        
   255      0.152225   7 O  py              299     -0.152056  11 O  py        

 Vector   44  Occ=2.000000D+00  E= 1.011840D-01
              MO Center= -4.2D-01,  4.7D-04,  3.6D-03, r^2= 8.1D+00
   Bfn.  Coefficient  Atom+Function         Bfn.  Coefficient  Atom+Function  
  ----- ------------  ---------------      ----- ------------  ---------------
    73      0.254287   1 U  fyyz             74     -0.228362   1 U  fyzz      
    68      0.211543   1 U  fxxz             26      0.164937   1 U  pz        
   262      0.154680   8 O  px              284     -0.154697  10 O  px        
    75     -0.153317   1 U  fzzz      

 Vector   45  Occ=2.000000D+00  E= 1.016483D-01
              MO Center= -1.0D-01,  5.0D-03,  2.5D-03, r^2= 8.3D+00
   Bfn.  Coefficient  Atom+Function         Bfn.  Coefficient  Atom+Function  
  ----- ------------  ---------------      ----- ------------  ---------------
    68      0.387162   1 U  fxxz             73      0.367536   1 U  fyyz      
    75     -0.248070   1 U  fzzz             78      0.186434   1 U  fxxz      
   220     -0.182111   4 O  pz              308     -0.179138  12 O  pz        
    83      0.178242   1 U  fyyz            275     -0.178550   9 O  pz        

 Vector   46  Occ=2.000000D+00  E= 1.132790D-01
              MO Center=  5.4D-03, -2.8D-02, -4.3D-04, r^2= 1.2D+01
   Bfn.  Coefficient  Atom+Function         Bfn.  Coefficient  Atom+Function  
  ----- ------------  ---------------      ----- ------------  ---------------
   219      0.256056   4 O  py              252      0.198484   7 O  py        
   296      0.197100  11 O  py              222      0.171940   4 O  py        
   273     -0.161180   9 O  px              274      0.157175   9 O  py        
   306      0.157824  12 O  px              307      0.153488  12 O  py        

 Vector   47  Occ=2.000000D+00  E= 1.149114D-01
              MO Center= -1.2D+00,  3.7D-02,  6.1D-04, r^2= 1.1D+01
   Bfn.  Coefficient  Atom+Function         Bfn.  Coefficient  Atom+Function  
  ----- ------------  ---------------      ----- ------------  ---------------
   306      0.280341  12 O  px              273      0.276336   9 O  px        
   284      0.206793  10 O  px              262      0.204353   8 O  px        
   309      0.191104  12 O  px              276      0.188573   9 O  px        
   295      0.180207  11 O  px              251      0.178252   7 O  px        
   287      0.150544  10 O  px        

 Vector   48  Occ=2.000000D+00  E= 1.173224D-01
              MO Center=  8.0D-01,  1.8D-03, -8.6D-04, r^2= 9.1D+00
   Bfn.  Coefficient  Atom+Function         Bfn.  Coefficient  Atom+Function  
  ----- ------------  ---------------      ----- ------------  ---------------
   219      0.244562   4 O  py              230      0.209401   5 O  py        
   241      0.208622   6 O  py              297      0.203291  11 O  pz        
    67     -0.201333   1 U  fxxy            253      0.199960   7 O  pz        
   222      0.167476   4 O  py              262      0.164103   8 O  px        
   284     -0.163955  10 O  px              233      0.158960   5 O  py        

 Vector   49  Occ=2.000000D+00  E= 1.210211D-01
              MO Center=  7.3D-01,  4.1D-02, -3.2D-03, r^2= 8.9D+00
   Bfn.  Coefficient  Atom+Function         Bfn.  Coefficient  Atom+Function  
  ----- ------------  ---------------      ----- ------------  ---------------
   297      0.237348  11 O  pz              253      0.227278   7 O  pz        
   220      0.219075   4 O  pz              230     -0.193541   5 O  py        
   241     -0.193658   6 O  py               68     -0.176200   1 U  fxxz      
   300      0.174796  11 O  pz              256      0.167482   7 O  pz        
   223      0.164666   4 O  pz              219     -0.160438   4 O  py        

 Vector   50  Occ=2.000000D+00  E= 1.230076D-01
              MO Center= -7.0D-01, -1.9D-02,  3.9D-04, r^2= 8.9D+00
   Bfn.  Coefficient  Atom+Function         Bfn.  Coefficient  Atom+Function  
  ----- ------------  ---------------      ----- ------------  ---------------
    70      0.376707   1 U  fxyz            264      0.285438   8 O  pz        
   286     -0.284777  10 O  pz              231     -0.243433   5 O  pz        
   242      0.238151   6 O  pz              275     -0.222950   9 O  pz        
   308      0.218128  12 O  pz              267      0.208834   8 O  pz        
   289     -0.208389  10 O  pz              234     -0.183292   5 O  pz        

 Vector   51  Occ=2.000000D+00  E= 1.244148D-01
              MO Center= -5.9D-01, -5.4D-02,  4.1D-03, r^2= 9.1D+00
   Bfn.  Coefficient  Atom+Function         Bfn.  Coefficient  Atom+Function  
  ----- ------------  ---------------      ----- ------------  ---------------
   253      0.334325   7 O  pz                6     -0.324589   1 U  s         
   297     -0.325740  11 O  pz              256      0.245945   7 O  pz        
   275     -0.243767   9 O  pz              300     -0.239771  11 O  pz        
   308      0.237328  12 O  pz              278     -0.183519   9 O  pz        
   311      0.178610  12 O  pz              110      0.164005   2 O  s         

 Vector   52  Occ=2.000000D+00  E= 1.271686D-01
              MO Center=  1.8D-01,  1.5D-02,  1.3D-03, r^2= 9.7D+00
   Bfn.  Coefficient  Atom+Function         Bfn.  Coefficient  Atom+Function  
  ----- ------------  ---------------      ----- ------------  ---------------
   220      0.271484   4 O  pz              264      0.260460   8 O  pz        
   286      0.259751  10 O  pz              223      0.208635   4 O  pz        
   242     -0.195011   6 O  pz              267      0.195278   8 O  pz        
   289      0.194527  10 O  pz              231     -0.186273   5 O  pz        
   308     -0.161272  12 O  pz              275     -0.155250   9 O  pz        

 Vector   53  Occ=2.000000D+00  E= 1.322968D-01
              MO Center=  7.8D-01, -6.2D-03,  3.1D-03, r^2= 6.5D+00
   Bfn.  Coefficient  Atom+Function         Bfn.  Coefficient  Atom+Function  
  ----- ------------  ---------------      ----- ------------  ---------------
   231      0.354402   5 O  pz              242     -0.349116   6 O  pz        
   234      0.266117   5 O  pz              245     -0.262404   6 O  pz        
   286     -0.220546  10 O  pz              264      0.217081   8 O  pz        
   289     -0.165204  10 O  pz              267      0.162672   8 O  pz        

 Vector   54  Occ=2.000000D+00  E= 1.389358D-01
              MO Center= -1.5D-01,  4.8D-03,  2.3D-03, r^2= 7.0D+00
   Bfn.  Coefficient  Atom+Function         Bfn.  Coefficient  Atom+Function  
  ----- ------------  ---------------      ----- ------------  ---------------
    73      0.545042   1 U  fyyz             68      0.527302   1 U  fxxz      
    26      0.510050   1 U  pz               75     -0.355523   1 U  fzzz      
    83      0.223532   1 U  fyyz             78      0.214399   1 U  fxxz      
   119      0.198767   2 O  pz              174      0.198778   3 O  pz        
    85     -0.188640   1 U  fzzz            308      0.188264  12 O  pz        

 Vector   55  Occ=2.000000D+00  E= 1.449343D-01
              MO Center=  1.2D+00, -8.0D-03,  2.2D-04, r^2= 9.4D+00
   Bfn.  Coefficient  Atom+Function         Bfn.  Coefficient  Atom+Function  
  ----- ------------  ---------------      ----- ------------  ---------------
    67      0.528302   1 U  fxxy            219      0.338496   4 O  py        
   222      0.239326   4 O  py              229      0.238284   5 O  px        
   240     -0.239304   6 O  px               77      0.190661   1 U  fxxy      
    72     -0.173481   1 U  fyyy            232      0.171477   5 O  px        
   243     -0.172126   6 O  px              306     -0.159535  12 O  px        

 Vector   56  Occ=2.000000D+00  E= 1.460094D-01
              MO Center=  9.8D-03,  7.8D-05, -1.8D-03, r^2= 1.2D+02
   Bfn.  Coefficient  Atom+Function         Bfn.  Coefficient  Atom+Function  
  ----- ------------  ---------------      ----- ------------  ---------------
    26      1.558640   1 U  pz              105      0.993939   1 U  fzzz      
    98      0.843839   1 U  fxxz            103      0.837933   1 U  fyyz      
    29     -0.788617   1 U  pz              109      0.701697   2 O  s         
   164     -0.700133   3 O  s               119      0.637634   2 O  pz        
   174      0.636918   3 O  pz               95      0.386297   1 U  fzzz      

 Vector   57  Occ=2.000000D+00  E= 1.499483D-01
              MO Center= -1.5D+00,  9.5D-03,  4.2D-04, r^2= 8.4D+00
   Bfn.  Coefficient  Atom+Function         Bfn.  Coefficient  Atom+Function  
  ----- ------------  ---------------      ----- ------------  ---------------
   262      0.260886   8 O  px              284      0.259181  10 O  px        
   306     -0.216212  12 O  px              273     -0.214201   9 O  px        
   265      0.190329   8 O  px              252     -0.189107   7 O  py        
   287      0.188788  10 O  px              296      0.187574  11 O  py        
    91      0.182974   1 U  fxzz             24     -0.167403   1 U  px        

 Vector   58  Occ=0.000000D+00  E= 1.460641D-01
              MO Center=  3.9D-02, -1.7D-03, -9.7D-04, r^2= 5.1D+01
   Bfn.  Coefficient  Atom+Function         Bfn.  Coefficient  Atom+Function  
  ----- ------------  ---------------      ----- ------------  ---------------
    26      0.776303   1 U  pz              105      0.619970   1 U  fzzz      
    98      0.525932   1 U  fxxz            103      0.520798   1 U  fyyz      
    29     -0.491506   1 U  pz              109      0.335307   2 O  s         
   164     -0.334667   3 O  s               119      0.298814   2 O  pz        
   174      0.298471   3 O  pz               88     -0.206437   1 U  fxxz      

 Vector   59  Occ=0.000000D+00  E= 1.530842D-01
              MO Center= -2.0D-01,  7.5D-03, -1.9D-04, r^2= 1.6D+02
   Bfn.  Coefficient  Atom+Function         Bfn.  Coefficient  Atom+Function  
  ----- ------------  ---------------      ----- ------------  ---------------
   101      1.739597   1 U  fxzz             27     -0.957590   1 U  px        
    96      0.924735   1 U  fxxx             99      0.921453   1 U  fxyy      

 Vector   60  Occ=0.000000D+00  E= 1.531887D-01
              MO Center=  3.5D-01, -1.0D-03, -2.4D-03, r^2= 1.6D+02
[...]
        0.068966       0.018841      -0.087807       0.010989       0.007124      -0.058784

 Principal components (a.u.) and orientation 
 of principal axis w.r.t. absolute frame                      Asymmetry parameter eta
 --------------------------------------------------------------------------------------
        0.042967       0.071539      -0.114506                       4.329903

       -0.258431       0.964180       0.059756
        0.875764       0.259943      -0.406777
       -0.407739      -0.052791      -0.911571
  

 ------------------------------------------------------------
   Atom      X         Y         Z
 ------------------------------------------------------------
    3 O    0.02061   0.27682   3.37886
 ------------------------------------------------------------

 Electric field gradient in molecular frame (a.u.)
         XX             YY             ZZ             XY             XZ             YZ
 ------------------------------------------------------------------------------------------
        0.068875       0.019542      -0.088417      -0.012022      -0.008106      -0.058839

 Principal components (a.u.) and orientation 
 of principal axis w.r.t. absolute frame                      Asymmetry parameter eta
 --------------------------------------------------------------------------------------
        0.043163       0.071942      -0.115105                       4.333500

        0.278775       0.958043      -0.066620
        0.870177      -0.281338      -0.404525
       -0.406295       0.054800      -0.912097
  

 ------------------------------------------------------------
   Atom      X         Y         Z
 ------------------------------------------------------------
    4 O    7.79594  -0.05143  -0.00073
 ------------------------------------------------------------

 Electric field gradient in molecular frame (a.u.)
         XX             YY             ZZ             XY             XZ             YZ
 ------------------------------------------------------------------------------------------
       -0.871821       0.750496       0.121324       0.010122      -0.000149      -0.196481

 Principal components (a.u.) and orientation 
 of principal axis w.r.t. absolute frame                      Asymmetry parameter eta
 --------------------------------------------------------------------------------------
        0.065015       0.806870      -0.871885                      25.821185

        0.002824       0.005821      -0.999979
        0.275497       0.961281       0.006374
        0.961298      -0.275509       0.001111
  

 ------------------------------------------------------------
   Atom      X         Y         Z
 ------------------------------------------------------------
    5 O    4.11003  -2.14479   0.30743
 ------------------------------------------------------------

 Electric field gradient in molecular frame (a.u.)
         XX             YY             ZZ             XY             XZ             YZ
 ------------------------------------------------------------------------------------------
       -0.141256      -0.559558       0.700814      -0.619284       0.153475       0.139726

 Principal components (a.u.) and orientation 
 of principal axis w.r.t. absolute frame                      Asymmetry parameter eta
 --------------------------------------------------------------------------------------
        0.298936       0.728978      -1.027914                       5.877161

        0.799285       0.148974      -0.582194
       -0.592714       0.035560      -0.804628
       -0.099166       0.988202       0.116721
  

 ------------------------------------------------------------
   Atom      X         Y         Z
 ------------------------------------------------------------
    6 O    4.13828   2.08896  -0.30614
 ------------------------------------------------------------

 Electric field gradient in molecular frame (a.u.)
         XX             YY             ZZ             XY             XZ             YZ
 ------------------------------------------------------------------------------------------
       -0.125164      -0.574869       0.700033       0.612954      -0.151880       0.142675

 Principal components (a.u.) and orientation 
 of principal axis w.r.t. absolute frame                      Asymmetry parameter eta
 --------------------------------------------------------------------------------------
        0.298644       0.728368      -1.027011                       5.877837

        0.806979      -0.148213       0.571679
        0.582332       0.038477      -0.812040
        0.098358       0.988207       0.117359
  

 ------------------------------------------------------------
   Atom      X         Y         Z
 ------------------------------------------------------------
    7 O   -0.27326  -4.58530   0.38217
 ------------------------------------------------------------

 Electric field gradient in molecular frame (a.u.)
         XX             YY             ZZ             XY             XZ             YZ
 ------------------------------------------------------------------------------------------
       -0.861848       0.165959       0.695889      -0.214614      -0.269520      -0.140264

 Principal components (a.u.) and orientation 
 of principal axis w.r.t. absolute frame                      Asymmetry parameter eta
 --------------------------------------------------------------------------------------
        0.196571       0.760019      -0.956590                       8.732781

       -0.231956      -0.138014       0.962885
        0.961859      -0.180093       0.205896
        0.144992       0.973919       0.174524
  

 ------------------------------------------------------------
   Atom      X         Y         Z
 ------------------------------------------------------------
    8 O   -3.89368  -2.57330  -0.15169
 ------------------------------------------------------------

 Electric field gradient in molecular frame (a.u.)
         XX             YY             ZZ             XY             XZ             YZ
 ------------------------------------------------------------------------------------------
        0.312449      -0.741366       0.428918       0.580742       0.044953       0.086970

 Principal components (a.u.) and orientation 
 of principal axis w.r.t. absolute frame                      Asymmetry parameter eta
 --------------------------------------------------------------------------------------
        0.397733       0.603512      -1.001245                       4.034759

       -0.386868       0.829548      -0.402720
       -0.127507       0.384408       0.914315
        0.913277       0.405069      -0.042942
  

 ------------------------------------------------------------
   Atom      X         Y         Z
 ------------------------------------------------------------
    9 O   -3.92027  -6.76980  -0.15528
 ------------------------------------------------------------

 Electric field gradient in molecular frame (a.u.)
         XX             YY             ZZ             XY             XZ             YZ
 ------------------------------------------------------------------------------------------
        0.145344      -0.472921       0.327577      -0.711460       0.092494      -0.130092

 Principal components (a.u.) and orientation 
 of principal axis w.r.t. absolute frame                      Asymmetry parameter eta
 --------------------------------------------------------------------------------------
        0.266391       0.675800      -0.942191                       6.073747

       -0.354435       0.760470       0.544115
        0.179606      -0.515691       0.837738
        0.917670       0.394650       0.046194
  

 ------------------------------------------------------------
   Atom      X         Y         Z
 ------------------------------------------------------------
   10 O   -3.86065   2.62289   0.15166
 ------------------------------------------------------------

 Electric field gradient in molecular frame (a.u.)
         XX             YY             ZZ             XY             XZ             YZ
 ------------------------------------------------------------------------------------------
        0.295377      -0.727031       0.431653      -0.595839      -0.043299       0.087845

 Principal components (a.u.) and orientation 
 of principal axis w.r.t. absolute frame                      Asymmetry parameter eta
 --------------------------------------------------------------------------------------
        0.400183       0.603387      -1.003571                       4.015558

        0.389119       0.822229       0.415363
       -0.134668      -0.395281       0.908635
        0.911291      -0.409503      -0.043084
  

 ------------------------------------------------------------
   Atom      X         Y         Z
 ------------------------------------------------------------
   11 O   -0.21363   4.58739  -0.38299
 ------------------------------------------------------------

 Electric field gradient in molecular frame (a.u.)
         XX             YY             ZZ             XY             XZ             YZ
 ------------------------------------------------------------------------------------------
       -0.855997       0.164081       0.691915       0.229633       0.267338      -0.143490

 Principal components (a.u.) and orientation 
 of principal axis w.r.t. absolute frame                      Asymmetry parameter eta
 --------------------------------------------------------------------------------------
        0.200915       0.756114      -0.957029                       8.526687

        0.245271       0.135326       0.959963
        0.958319      -0.183496      -0.218984
        0.146515       0.973661      -0.174691
  

 ------------------------------------------------------------
   Atom      X         Y         Z
 ------------------------------------------------------------
   12 O   -3.83155   6.82112   0.15646
 ------------------------------------------------------------

 Electric field gradient in molecular frame (a.u.)
         XX             YY             ZZ             XY             XZ             YZ
 ------------------------------------------------------------------------------------------
        0.163572      -0.491292       0.327720       0.704779      -0.093449      -0.129781

 Principal components (a.u.) and orientation 
 of principal axis w.r.t. absolute frame                      Asymmetry parameter eta
 --------------------------------------------------------------------------------------
        0.266878       0.676890      -0.943768                       6.072664

        0.356176       0.767137      -0.533516
        0.173939       0.506549       0.844484
        0.918087      -0.393585       0.046985
  

 ------------------------------------------------------------
   Atom      X         Y         Z
 ------------------------------------------------------------
   13 C    5.50099  -0.03672   0.00065
 ------------------------------------------------------------

 Electric field gradient in molecular frame (a.u.)
         XX             YY             ZZ             XY             XZ             YZ
 ------------------------------------------------------------------------------------------
        0.099320       0.032126      -0.131446      -0.000425      -0.000274      -0.023533

 Principal components (a.u.) and orientation 
 of principal axis w.r.t. absolute frame                      Asymmetry parameter eta
 --------------------------------------------------------------------------------------
        0.035442       0.099323      -0.134765                       6.604766

        0.005992       0.999981      -0.001413
        0.990185      -0.006130      -0.139628
       -0.139634      -0.000563      -0.990203
  

 ------------------------------------------------------------
   Atom      X         Y         Z
 ------------------------------------------------------------
   14 C   -2.75196  -4.72422  -0.00410
 ------------------------------------------------------------

 Electric field gradient in molecular frame (a.u.)
         XX             YY             ZZ             XY             XZ             YZ
 ------------------------------------------------------------------------------------------
        0.039244       0.092384      -0.131628       0.005927       0.025307       0.000641

 Principal components (a.u.) and orientation 
 of principal axis w.r.t. absolute frame                      Asymmetry parameter eta
 --------------------------------------------------------------------------------------
        0.042206       0.093092      -0.135298                       5.411352

        0.982728       0.116820      -0.143522
       -0.117906       0.993024       0.000948
        0.142631       0.015990       0.989647
  

 ------------------------------------------------------------
   Atom      X         Y         Z
 ------------------------------------------------------------
   15 C   -2.68878   4.76021   0.00383
 ------------------------------------------------------------

 Electric field gradient in molecular frame (a.u.)
         XX             YY             ZZ             XY             XZ             YZ
 ------------------------------------------------------------------------------------------
        0.039292       0.092334      -0.131626      -0.005337      -0.025408       0.001070

 Principal components (a.u.) and orientation 
 of principal axis w.r.t. absolute frame                      Asymmetry parameter eta
 --------------------------------------------------------------------------------------
        0.042397       0.092926      -0.135323                       5.383587

        0.983795      -0.106887       0.143952
        0.108196       0.994129      -0.001275
       -0.142971       0.016829       0.989584
  

          -----------------------------------------
          Chemical Shielding Tensors (GIAO, in ppm)
          -----------------------------------------

 Entering for xc, kfac=   0.00000000000000     
 Grid integrated density:     114.008088032532
 Requested integration accuracy:   0.10E-06
                                NWChem CPHF Module
                                ------------------


  scftype          =     RHF 
  nclosed          =       57
  nopen            =        0
  variables        =    15732
  # of vectors     =        3
  tolerance        = 0.10D-03
  level shift      = 0.00D+00
  max iterations   =       50
  max subspace     =       30

 Grid integrated density:     114.008088032532
 Requested integration accuracy:   0.10E-06
 SCF residual:   4.864254937344059E-004


Iterative solution of linear equations
  No. of variables    15732
  No. of equations        3
  Maximum subspace       30
        Iterations       50
       Convergence  1.0D-04
        Start time  38151.8


   iter   nsub   residual    time
   ----  ------  --------  ---------
     1      3    2.33D-02   38825.4
     2      6    1.45D-05   39498.9
      Atom:    1  O 
        Diamagnetic
    146.3312      1.3239      1.1658
      1.3239    145.9068     -4.3647
      1.1658     -4.3647    161.8190

        Paramagnetic
  -2683.2223    138.5814   -113.9371
    138.5814  -1666.6911    108.1091
   -113.9371    108.1091    -34.1692

        Total Shielding Tensor
  -2536.8911    139.9053   -112.7713
    139.9053  -1520.7843    103.7444
   -112.7713    103.7444    127.6498

           isotropic =   -1310.0085
          anisotropy =   -1877.5207

          Principal Components and Axis System
                 1           2           3
            -2561.6890  -1506.5369    138.2003

      1         0.9894      0.1401     -0.0390
      2        -0.1376      0.9887      0.0591
      3         0.0468     -0.0531      0.9975



      Atom:    2  O 
        Diamagnetic
    146.1677     -1.3250     -1.2482
     -1.3250    145.8184     -4.3031
     -1.2482     -4.3031    161.7831

        Paramagnetic
  -2691.3144   -123.2770    117.7139
   -123.2770  -1665.7991    106.5481
    117.7139    106.5481    -33.3004

        Total Shielding Tensor
  -2545.1467   -124.6020    116.4657
   -124.6020  -1519.9807    102.2451
    116.4657    102.2451    128.4828

           isotropic =   -1312.2149
          anisotropy =   -1880.9050

          Principal Components and Axis System
                 1           2           3
            -2566.1515  -1509.7008    139.2076

      1         0.9913     -0.1252      0.0406
      2         0.1227      0.9907      0.0584
      3        -0.0475     -0.0529      0.9975




 Task  times  cpu:    15266.5s     wall:    15268.9s
 Summary of allocated global arrays
-----------------------------------
  No active global arrays



                         GA Statistics for process    0
                         ------------------------------

       create   destroy   get      put      acc     scatter   gather  read&inc
calls:  981      981     2.42e+08 1.13e+05 2.87e+06   74        0        0     
number of processes/call 1.00e+00 1.00e+00 1.00e+00 1.00e+00 0.00e+00
bytes total:             6.00e+10 1.08e+09 2.11e+10 6.31e+07 0.00e+00 0.00e+00
bytes remote:            0.00e+00 0.00e+00 0.00e+00 0.00e+00 0.00e+00 0.00e+00
Max memory consumed for GA by this process: 35644128 bytes
MA_summarize_allocated_blocks: starting scan ...
heap block './nmrrun.grinfo.0', handle 114, address 0x1fd67418:
	type of elements:		char
	number of elements:		1024
	address of client space:	0x1fd6746c
	index for client space:		292046061
	total number of bytes:		1112
MA_summarize_allocated_blocks: scan completed: 1 heap block, 0 stack blocks
MA usage statistics:

	allocation statistics:
					      heap	     stack
					      ----	     -----
	current number of blocks	         1	         0
	maximum number of blocks	        47	        48
	current total bytes		      1112	         0
	maximum total bytes		  48455752	  54863976
	maximum total K-bytes		     48456	     54864
	maximum total M-bytes		        49	        55


                                NWChem Input Module
                                -------------------





                                     CITATION
                                     --------
                Please cite the following reference when publishing
                           results obtained with NWChem:

                 M. Valiev, E.J. Bylaska, N. Govind, K. Kowalski,
              T.P. Straatsma, H.J.J. van Dam, D. Wang, J. Nieplocha,
                        E. Apra, T.L. Windus, W.A. de Jong
                 "NWChem: a comprehensive and scalable open-source
                  solution for large scale molecular simulations"
                      Comput. Phys. Commun. 181, 1477 (2010)
                           doi:10.1016/j.cpc.2010.04.018

                              AUTHORS & CONTRIBUTORS
                              ----------------------
      E. J. Bylaska, W. A. de Jong, N. Govind, K. Kowalski, T. P. Straatsma,
     M. Valiev, H. J. J. van Dam, D. Wang, E. Apra, T. L. Windus, J. Hammond,
    J. Autschbach, F. Aquino, J. Mullin, P. Nichols, S. Hirata, M. T. Hackler,
   Y. Zhao, P.-D. Fan, R. J. Harrison, M. Dupuis, D. M. A. Smith, K. Glaesemann,
    J. Nieplocha, V. Tipparaju, M. Krishnan, A. Vazquez-Mayagoitia, L. Jensen,
      M. Swart, Q. Wu, T. Van Voorhis, A. A. Auer, M. Nooijen, L. D. Crosby,
        E. Brown, G. Cisneros, G. I. Fann, H. Fruchtl, J. Garza, K. Hirao,
        R. Kendall, J. A. Nichols, K. Tsemekhman, K. Wolinski, J. Anchell,
       D. Bernholdt, P. Borowski, T. Clark, D. Clerc, H. Dachsel, M. Deegan,
        K. Dyall, D. Elwood, E. Glendening, M. Gutowski, A. Hess, J. Jaffe,
        B. Johnson, J. Ju, R. Kobayashi, R. Kutteh, Z. Lin, R. Littlefield,
    X. Long, B. Meng, T. Nakajima, S. Niu, L. Pollack, M. Rosing, G. Sandrone,
       M. Stave, H. Taylor, G. Thomas, J. H. van Lenthe, A. Wong, Z. Zhang.

 Total times  cpu:    39491.7s     wall:    39502.5s
