 argument  1 = prop_h2o.nw



============================== echo of input deck ==============================
echo
start prop_h2o_run
title h2o
ecce_print test.cml

geometry units au nocenter
o       .00000000      .00000000      .11786656
h1      .00000000     1.84118838     -.93531364
h2      .00000000    -1.84118838     -.93531364
end

basis
  h1 library h cc-pvdz
  h2 library h sto-3g
  o library "Stuttgart RLC ECP"
end
ecp
  o library "Stuttgart RLC ECP"
end
charge 0

task scf optimize
task scf freq

property
  mulliken
  dipole
  quadrupole
  octupole
  esp
  efield
  efieldgrad
  electrondensity
  shielding
end

task scf property

================================================================================


                                         
                                         


              Northwest Computational Chemistry Package (NWChem) 6.1
              ------------------------------------------------------


                    Environmental Molecular Sciences Laboratory
                       Pacific Northwest National Laboratory
                                Richland, WA 99352

                              Copyright (c) 1994-2010
                       Pacific Northwest National Laboratory
                            Battelle Memorial Institute

             NWChem is an open-source computational chemistry package
                        distributed under the terms of the
                      Educational Community License (ECL) 2.0
             A copy of the license is included with this distribution
                              in the LICENSE.TXT file

                                  ACKNOWLEDGMENT
                                  --------------

            This software and its documentation were developed at the
            EMSL at Pacific Northwest National Laboratory, a multiprogram
            national laboratory, operated for the U.S. Department of Energy
            by Battelle under Contract Number DE-AC05-76RL01830. Support
            for this work was provided by the Department of Energy Office
            of Biological and Environmental Research, Office of Basic
            Energy Sciences, and the Office of Advanced Scientific Computing.


           Job information
           ---------------

    hostname      = fryslan
    program       = ../../../bin/LINUX64/nwchem
    date          = Thu Aug  2 12:58:08 2012

    compiled      = Thu_Aug_02_12:57:46_2012
    source        = /home/bert/nwchem-6.1
    nwchem branch = 6.1
    input         = prop_h2o.nw
    prefix        = prop_h2o_run.
    data base     = ./prop_h2o_run.db
    status        = startup
    nproc         =        1
    time left     =     -1s



           Memory information
           ------------------

    heap     =   13107201 doubles =    100.0 Mbytes
    stack    =   13107201 doubles =    100.0 Mbytes
    global   =   26214400 doubles =    200.0 Mbytes (distinct from heap & stack)
    total    =   52428802 doubles =    400.0 Mbytes
    verify   = yes
    hardfail = no 


           Directory information
           ---------------------

  0 permanent = .
  0 scratch   = .




                                NWChem Input Module
                                -------------------


                                        h2o
                                        ---
 CS  symmetry detected

          ------
          auto-z
          ------


                             Geometry "geometry" -> ""
                             -------------------------

 Output coordinates in a.u. (scale by  1.000000000 to convert to a.u.)

  No.       Tag          Charge          X              Y              Z
 ---- ---------------- ---------- -------------- -------------- --------------
    1 o                    8.0000     0.11786656     0.00000000     0.00000000
    2 h1                   1.0000    -0.93531364    -1.84118838     0.00000000
    3 h2                   1.0000    -0.93531364     1.84118838     0.00000000

      Atomic Mass 
      ----------- 

      o                 15.994910
      h1                 1.007825
      h2                 1.007825


 Effective nuclear repulsion energy (a.u.)       7.8147374646

            Nuclear Dipole moment (a.u.) 
            ----------------------------
        X                 Y               Z
 ---------------- ---------------- ----------------
    -0.9276948448     0.0000000000     0.0000000000

      Symmetry information
      --------------------

 Group name             Cs        
 Group number              2
 Group order               2
 No. of unique centers     3

      Symmetry unique atoms

     1    2    3



                                Z-matrix (autoz)
                                -------- 

 Units are Angstrom for bonds and degrees for angles

      Type          Name      I     J     K     L     M      Value
      ----------- --------  ----- ----- ----- ----- ----- ----------
    1 Stretch                  1     2                       1.12245
    2 Stretch                  1     3                       1.12245
    3 Bend                     2     1     3               120.45993


            XYZ format geometry
            -------------------
     3
 geometry
 o                     0.06237230     0.00000000     0.00000000
 h1                   -0.49494670    -0.97431500     0.00000000
 h2                   -0.49494670     0.97431500     0.00000000

                      Basis "ao basis" -> "" (cartesian)
                      -----
  h1 (Hydrogen)
  -------------
            Exponent  Coefficients 
       -------------- ---------------------------------------------------------
  1 S  1.30100000E+01  0.019685
  1 S  1.96200000E+00  0.137977
  1 S  4.44600000E-01  0.478148

  2 S  1.22000000E-01  1.000000

  3 P  7.27000000E-01  1.000000

  h2 (Hydrogen)
  -------------
            Exponent  Coefficients 
       -------------- ---------------------------------------------------------
  1 S  3.42525091E+00  0.154329
  1 S  6.23913730E-01  0.535328
  1 S  1.68855400E-01  0.444635

  o (Oxygen)
  ----------
            Exponent  Coefficients 
       -------------- ---------------------------------------------------------
  1 S  4.71055180E+01 -0.014408
  1 S  5.91134600E+00  0.129568
  1 S  9.76483000E-01 -0.563118

  2 S  2.96070000E-01  1.000000

  3 P  1.66922190E+01  0.044856
  3 P  3.90070200E+00  0.222613
  3 P  1.07825300E+00  0.500188

  4 P  2.84189000E-01  1.000000

  5 P  7.02000000E-02  1.000000



 Summary of "ao basis" -> "" (cartesian)
 ------------------------------------------------------------------------------
       Tag                 Description            Shells   Functions and Types
 ---------------- ------------------------------  ------  ---------------------
 h1                         cc-pvdz                  3        5   2s1p
 h2                          sto-3g                  1        1   1s
 o                     Stuttgart RLC ECP             5       11   2s3p



 **** WARNING Zero Coefficient **** on atom "               o"
 angular momentum value:-1  standard basis set name: "Stuttgart RLC ECP"
 input line that generated warning:
  1519: 2      1.000000000            0.000000000
  
 Local ECP potential is zero and ignored
  
                 ECP       "ecp basis" -> "" (cartesian)
                -----
  o (Oxygen) Replaces     2 electrons
  -----------------------------------
          R-exponent    Exponent     Coefficients 
         ------------ ---------------------------------------------------------
  1 U-s      2.00       10.445670      50.771069

  2 U-p      2.00       18.045174      -4.903551

  3 U-d      2.00        8.164798      -3.312124



                           NWChem Geometry Optimization
                           ----------------------------




                                        h2o


 maximum gradient threshold         (gmax) =   0.000450
 rms gradient threshold             (grms) =   0.000300
 maximum cartesian step threshold   (xmax) =   0.001800
 rms cartesian step threshold       (xrms) =   0.001200
 fixed trust radius                (trust) =   0.300000
 maximum step size to saddle      (sadstp) =   0.100000
 energy precision                  (eprec) =   1.0D-07
 maximum number of steps          (nptopt) =   20
 initial hessian option           (inhess) =    0
 line search option               (linopt) =    1
 hessian update option            (modupd) =    1
 saddle point option              (modsad) =    0
 initial eigen-mode to follow     (moddir) =    0
 initial variable to follow       (vardir) =    0
 follow first negative mode     (firstneg) =    T
 apply conjugacy                    (opcg) =    F
 source of zmatrix                         =   autoz   


          -------------------
          Energy Minimization
          -------------------


 Names of Z-matrix variables 
    1              2              3         

 Variables with the same non-blank name are constrained to be equal


 Using diagonal initial Hessian 
 Scaling for Hessian diagonals: bonds = 1.00  angles = 0.25  torsions = 0.10

          --------
          Step   0
          --------


                         Geometry "geometry" -> "geometry"
                         ---------------------------------

 Output coordinates in a.u. (scale by  1.000000000 to convert to a.u.)

  No.       Tag          Charge          X              Y              Z
 ---- ---------------- ---------- -------------- -------------- --------------
    1 o                    8.0000     0.11786656     0.00000000     0.00000000
    2 h1                   1.0000    -0.93531364    -1.84118838     0.00000000
    3 h2                   1.0000    -0.93531364     1.84118838     0.00000000

      Atomic Mass 
      ----------- 

      o                 15.994910
      h1                 1.007825
      h2                 1.007825


 Effective nuclear repulsion energy (a.u.)       7.8147374646

            Nuclear Dipole moment (a.u.) 
            ----------------------------
        X                 Y               Z
 ---------------- ---------------- ----------------
    -0.9276948448     0.0000000000     0.0000000000

      Symmetry information
      --------------------

 Group name             Cs        
 Group number              2
 Group order               2
 No. of unique centers     3

      Symmetry unique atoms

     1    2    3

                                 NWChem SCF Module
                                 -----------------


                                        h2o



  ao basis        = "ao basis"
  functions       =    17
  atoms           =     3
  closed shells   =     4
  open shells     =     0
  charge          =   0.00
  wavefunction    = RHF 
  input vectors   = atomic
  output vectors  = ./prop_h2o_run.movecs
  use symmetry    = T
  symmetry adapt  = T


 Summary of "ao basis" -> "ao basis" (cartesian)
 ------------------------------------------------------------------------------
       Tag                 Description            Shells   Functions and Types
 ---------------- ------------------------------  ------  ---------------------
 h1                         cc-pvdz                  3        5   2s1p
 h2                          sto-3g                  1        1   1s
 o                     Stuttgart RLC ECP             5       11   2s3p


      Symmetry analysis of basis
      --------------------------

        a'         13
        a"          4


 Forming initial guess at       0.0s


      Superposition of Atomic Density Guess
      -------------------------------------

 Sum of atomic energies:         -18.26882029

      Non-variational initial energy
      ------------------------------

 Total energy =     -16.342136
 1-e energy   =     -38.823570
 2-e energy   =      16.552490
 HOMO         =      -0.425082
 LUMO         =       0.054716


      Symmetry analysis of molecular orbitals - initial
      -------------------------------------------------

  Numbering of irreducible representations: 

     1 a'          2 a"      

  Orbital symmetries:

     1 a'          2 a'          3 a'          4 a"          5 a'      
     6 a'          7 a'          8 a"          9 a'         10 a'      
    11 a'         12 a"         13 a'         14 a"      


 Starting SCF solution at       0.1s



 ----------------------------------------------
         Quadratically convergent ROHF

 Convergence threshold     :          1.000E-04
 Maximum no. of iterations :           30
 Final Fock-matrix accuracy:          1.000E-07
 ----------------------------------------------


 #quartets = 1.035D+03 #integrals = 6.434D+03 #direct =  0.0% #cached =100.0%


 Integral file          = ./prop_h2o_run.aoints.0
 Record size in doubles =  65536        No. of integs per rec  =  43688
 Max. records in memory =      2        Max. records in file   = 162135
 No. of bits per label  =      8        No. of bits per value  =     64


              iter       energy          gnorm     gmax       time
             ----- ------------------- --------- --------- --------
                 1      -16.8237281980  7.61D-01  3.61D-01      0.1
                 2      -16.8566450740  1.73D-01  7.20D-02      0.1
                 3      -16.8596481121  1.69D-02  9.00D-03      0.1
                 4      -16.8596917173  1.04D-04  6.54D-05      0.1
                 5      -16.8596917188  2.43D-06  1.06D-06      0.1


       Final RHF  results 
       ------------------ 

         Total SCF energy =    -16.859691718791
      One-electron energy =    -39.651227430764
      Two-electron energy =     16.862591678886
 Nuclear repulsion energy =      5.928944033087

        Time for solution =      0.0s



       Symmetry analysis of molecular orbitals - final
       -----------------------------------------------

  Numbering of irreducible representations: 

     1 a'          2 a"      

  Orbital symmetries:

     1 a'          2 a'          3 a'          4 a"          5 a'      
     6 a'          7 a"          8 a'          9 a'         10 a'      
    11 a'         12 a"         13 a'         14 a"      

             Final eigenvalues
             -----------------

              1      
    1   -1.2882
    2   -0.6591
    3   -0.5205
    4   -0.4952
    5    0.1406
    6    0.1849
    7    0.2168
    8    0.2204
    9    0.5324
   10    0.7321
   11    1.3904
   12    1.3920
   13    1.4097
   14    1.5883

                       ROHF Final Molecular Orbital Analysis
                       -------------------------------------

 Vector    1  Occ=2.000000D+00  E=-1.288189D+00  Symmetry=a'
              MO Center= -5.6D-02,  4.9D-03, -1.7D-17, r^2= 5.3D-01
   Bfn.  Coefficient  Atom+Function         Bfn.  Coefficient  Atom+Function  
  ----- ------------  ---------------      ----- ------------  ---------------
     2      0.472286  1 O  s                  1     -0.450366  1 O  s          

 Vector    2  Occ=2.000000D+00  E=-6.591035D-01  Symmetry=a'
              MO Center= -1.5D-01, -7.2D-03, -2.9D-17, r^2= 9.6D-01
   Bfn.  Coefficient  Atom+Function         Bfn.  Coefficient  Atom+Function  
  ----- ------------  ---------------      ----- ------------  ---------------
     4      0.463518  1 O  py                17      0.352255  3 H  s          
    12     -0.310523  2 H  s                  7      0.277331  1 O  py         

 Vector    3  Occ=2.000000D+00  E=-5.205399D-01  Symmetry=a'
              MO Center=  7.9D-02,  4.8D-03,  1.1D-16, r^2= 8.4D-01
   Bfn.  Coefficient  Atom+Function         Bfn.  Coefficient  Atom+Function  
  ----- ------------  ---------------      ----- ------------  ---------------
     3      0.541428  1 O  px                 6      0.405988  1 O  px         
     2      0.217212  1 O  s                 17     -0.217726  3 H  s          
    12     -0.172248  2 H  s          

 Vector    4  Occ=2.000000D+00  E=-4.951900D-01  Symmetry=a"
              MO Center=  5.8D-02, -7.6D-03,  1.2D-16, r^2= 6.8D-01
   Bfn.  Coefficient  Atom+Function         Bfn.  Coefficient  Atom+Function  
  ----- ------------  ---------------      ----- ------------  ---------------
     5      0.623531  1 O  pz                 8      0.474328  1 O  pz         

 Vector    5  Occ=0.000000D+00  E= 1.405806D-01  Symmetry=a'
              MO Center= -4.6D-01,  4.9D-02,  3.4D-15, r^2= 3.3D+00
   Bfn.  Coefficient  Atom+Function         Bfn.  Coefficient  Atom+Function  
  ----- ------------  ---------------      ----- ------------  ---------------
    13      1.287626  2 H  s                  2     -0.752142  1 O  s          
    10      0.667633  1 O  py                 6      0.340371  1 O  px         
     3      0.235538  1 O  px                17      0.224302  3 H  s          

 Vector    6  Occ=0.000000D+00  E= 1.849207D-01  Symmetry=a'
              MO Center=  1.7D-03, -1.9D-01,  3.5D-16, r^2= 5.3D+00
   Bfn.  Coefficient  Atom+Function         Bfn.  Coefficient  Atom+Function  
  ----- ------------  ---------------      ----- ------------  ---------------
    10      1.064061  1 O  py                 7     -0.480751  1 O  py         
     4     -0.246752  1 O  py         

 Vector    7  Occ=0.000000D+00  E= 2.168075D-01  Symmetry=a"
              MO Center=  6.2D-02, -1.2D-03,  1.8D-14, r^2= 5.7D+00
   Bfn.  Coefficient  Atom+Function         Bfn.  Coefficient  Atom+Function  
  ----- ------------  ---------------      ----- ------------  ---------------
    11      1.140256  1 O  pz                 8     -0.406830  1 O  pz         
     5     -0.194705  1 O  pz         

 Vector    8  Occ=0.000000D+00  E= 2.204231D-01  Symmetry=a'
              MO Center=  6.2D-01,  9.5D-02, -2.1D-14, r^2= 5.3D+00
   Bfn.  Coefficient  Atom+Function         Bfn.  Coefficient  Atom+Function  
  ----- ------------  ---------------      ----- ------------  ---------------
     9      1.208719  1 O  px                13      0.567978  2 H  s          
     6     -0.336429  1 O  px                 2     -0.315787  1 O  s          
    10      0.162009  1 O  py         

 Vector    9  Occ=0.000000D+00  E= 5.323741D-01  Symmetry=a'
              MO Center= -2.0D-01,  5.4D-01, -5.0D-16, r^2= 1.8D+00
   Bfn.  Coefficient  Atom+Function         Bfn.  Coefficient  Atom+Function  
  ----- ------------  ---------------      ----- ------------  ---------------
    17      1.352301  3 H  s                 10     -0.753221  1 O  py         
    13     -0.727030  2 H  s                  7     -0.430461  1 O  py         
     4     -0.365045  1 O  py         

 Vector   10  Occ=0.000000D+00  E= 7.320695D-01  Symmetry=a'
              MO Center= -4.6D-01, -8.2D-01, -9.3D-16, r^2= 1.5D+00
   Bfn.  Coefficient  Atom+Function         Bfn.  Coefficient  Atom+Function  
  ----- ------------  ---------------      ----- ------------  ---------------
    12      1.342249  2 H  s                 13     -1.311441  2 H  s          
    10     -0.288946  1 O  py                17      0.281319  3 H  s          
     4      0.252665  1 O  py                 3      0.219148  1 O  px         
     2      0.197164  1 O  s          

 Vector   11  Occ=0.000000D+00  E= 1.390370D+00  Symmetry=a'
              MO Center= -1.6D-01, -3.7D-01,  1.4D-15, r^2= 1.4D+00
   Bfn.  Coefficient  Atom+Function         Bfn.  Coefficient  Atom+Function  
  ----- ------------  ---------------      ----- ------------  ---------------
     6      0.933951  1 O  px                 3     -0.776280  1 O  px         
    14      0.474161  2 H  px                 9     -0.384101  1 O  px         
     4      0.325552  1 O  py                 7     -0.316278  1 O  py         
    15     -0.209918  2 H  py                17      0.192185  3 H  s          
     2     -0.158575  1 O  s          

 Vector   12  Occ=0.000000D+00  E= 1.391951D+00  Symmetry=a"
              MO Center= -8.8D-02, -2.6D-01, -2.8D-16, r^2= 1.5D+00
   Bfn.  Coefficient  Atom+Function         Bfn.  Coefficient  Atom+Function  
  ----- ------------  ---------------      ----- ------------  ---------------
     8      1.030576  1 O  pz                 5     -0.888377  1 O  pz         
    11     -0.450783  1 O  pz                16      0.417426  2 H  pz         

 Vector   13  Occ=0.000000D+00  E= 1.409722D+00  Symmetry=a'
              MO Center=  1.8D-01,  7.4D-02,  1.2D-15, r^2= 1.6D+00
   Bfn.  Coefficient  Atom+Function         Bfn.  Coefficient  Atom+Function  
  ----- ------------  ---------------      ----- ------------  ---------------
     7      1.527162  1 O  py                 6      0.822687  1 O  px         
    12      0.807165  2 H  s                  4     -0.689190  1 O  py         
    15      0.512889  2 H  py                 3     -0.373577  1 O  px         
     2     -0.363916  1 O  s                 10     -0.360033  1 O  py         
     9     -0.243783  1 O  px                17     -0.241212  3 H  s          

 Vector   14  Occ=0.000000D+00  E= 1.588349D+00  Symmetry=a"
              MO Center= -3.1D-01, -6.5D-01,  3.2D-16, r^2= 1.1D+00
   Bfn.  Coefficient  Atom+Function         Bfn.  Coefficient  Atom+Function  
  ----- ------------  ---------------      ----- ------------  ---------------
    16      0.965014  2 H  pz                 8     -0.840460  1 O  pz         
     5      0.436973  1 O  pz                11      0.187012  1 O  pz         


 center of mass
 --------------
 x =   0.00000000 y =   0.00000000 z =   0.00000000

 moments of inertia (a.u.)
 ------------------
           6.833002404577           0.000000000000           0.000000000000
           0.000000000000           1.985523714464           0.000000000000
           0.000000000000           0.000000000000           8.818526119040

  Mulliken analysis of the total density
  --------------------------------------

    Atom       Charge   Shell Charges
 -----------   ------   -------------------------------------------------------
    1 O    6     6.66   0.86  0.96  2.66  2.00  0.18
    2 H    1     0.70   0.56  0.08  0.06
    3 H    1     0.64   0.64

       Multipole analysis of the density wrt the origin
       ------------------------------------------------

     L   x y z        total         open         nuclear
     -   - - -        -----         ----         -------
     0   0 0 0      0.000000      0.000000      8.000000

     1   1 0 0     -0.899581      0.000000     -1.163428
     1   0 1 0      0.019438      0.000000      0.000000
     1   0 0 1      0.000000      0.000000      0.000000

     2   2 0 0     -5.059167      0.000000      1.832978
     2   1 1 0      0.024342      0.000000      0.000000
     2   1 0 1      0.000000      0.000000      0.000000
     2   0 2 0     -2.151084      0.000000      6.779949
     2   0 1 1      0.000000      0.000000      0.000000
     2   0 0 2     -5.945141      0.000000      0.000000


 Parallel integral file used       1 records with       0 large values

                              NWChem Gradients Module
                              -----------------------


                                        h2o


  wavefunction    =   RHF     

  Using symmetry


                         RHF ENERGY GRADIENTS

    atom               coordinates                        gradient
                 x          y          z           x          y          z
   1 o       0.117867   0.000000   0.000000    0.075692   0.018118   0.000000
   2 h1     -0.935314  -1.841188   0.000000   -0.043028  -0.112970   0.000000
   3 h2     -0.935314   1.841188   0.000000   -0.032664   0.094851   0.000000

                 ----------------------------------------
                 |  Time  |  1-e(secs)   |  2-e(secs)   |
                 ----------------------------------------
                 |  CPU   |       0.00   |       0.05   |
                 ----------------------------------------
                 |  WALL  |       0.00   |       0.05   |
                 ----------------------------------------

@ Step       Energy      Delta E   Gmax     Grms     Xrms     Xmax   Walltime
@ ---- ---------------- -------- -------- -------- -------- -------- --------
@    0     -16.85969172  0.0D+00  0.11942  0.09022  0.00000  0.00000      0.2
                                                                    



                                Z-matrix (autoz)
                                -------- 

 Units are Angstrom for bonds and degrees for angles

      Type          Name      I     J     K     L     M      Value     Gradient
      ----------- --------  ----- ----- ----- ----- ----- ---------- ----------
    1 Stretch                  1     2                       1.12245    0.11942
    2 Stretch                  1     3                       1.12245    0.09855
    3 Bend                     2     1     3               120.45993    0.02104

 Restricting large step in mode    1 eval= 4.5D-02 step=-4.6D-01 new=-3.0D-01
 Restricting large step in mode    2 eval= 2.6D-01 step=-4.5D-01 new=-3.0D-01
 Restricting large step in mode    3 eval= 2.6D-01 step=-3.8D-01 new=-3.0D-01
 Restricting overall step due to large component. alpha=  1.00
                                 NWChem SCF Module
                                 -----------------


                                        h2o



  ao basis        = "ao basis"
  functions       =    17
  atoms           =     3
  closed shells   =     4
  open shells     =     0
  charge          =   0.00
  wavefunction    = RHF 
  input vectors   = ./prop_h2o_run.movecs
  output vectors  = ./prop_h2o_run.movecs
  use symmetry    = T
  symmetry adapt  = T


 Summary of "ao basis" -> "ao basis" (cartesian)
 ------------------------------------------------------------------------------
       Tag                 Description            Shells   Functions and Types
 ---------------- ------------------------------  ------  ---------------------
 h1                         cc-pvdz                  3        5   2s1p
 h2                          sto-3g                  1        1   1s
 o                     Stuttgart RLC ECP             5       11   2s3p


      Symmetry analysis of basis
      --------------------------

        a'         13
        a"          4


 Forming initial guess at       0.2s


 Loading old vectors from job with title :

h2o


      Symmetry analysis of molecular orbitals - initial
      -------------------------------------------------

  Numbering of irreducible representations: 

     1 a'          2 a"      

  Orbital symmetries:

     1 a'          2 a'          3 a'          4 a"          5 a'      
     6 a'          7 a"          8 a'          9 a'         10 a'      
    11 a'         12 a"         13 a'         14 a"      


 Starting SCF solution at       0.2s



 ----------------------------------------------
         Quadratically convergent ROHF

 Convergence threshold     :          1.000E-04
 Maximum no. of iterations :           30
 Final Fock-matrix accuracy:          1.000E-07
 ----------------------------------------------


 #quartets = 1.035D+03 #integrals = 6.434D+03 #direct =  0.0% #cached =100.0%


 Integral file          = ./prop_h2o_run.aoints.0
 Record size in doubles =  65536        No. of integs per rec  =  43688
 Max. records in memory =      2        Max. records in file   = 162135
 No. of bits per label  =      8        No. of bits per value  =     64


              iter       energy          gnorm     gmax       time
             ----- ------------------- --------- --------- --------
                 1      -16.8899505613  4.55D-01  2.03D-01      0.2
                 2      -16.9021988847  1.53D-01  7.82D-02      0.2
                 3      -16.9035427213  6.43D-03  2.99D-03      0.2
                 4      -16.9035503710  1.35D-05  5.73D-06      0.2


       Final RHF  results 
       ------------------ 

         Total SCF energy =    -16.903550371013
      One-electron energy =    -41.307084411159
      Two-electron energy =     17.481769939298
 Nuclear repulsion energy =      6.921764100847

        Time for solution =      0.0s



       Symmetry analysis of molecular orbitals - final
       -----------------------------------------------

  Numbering of irreducible representations: 

     1 a'          2 a"      

  Orbital symmetries:

     1 a'          2 a'          3 a'          4 a"          5 a'      
     6 a'          7 a"          8 a'          9 a'         10 a'      
    11 a'         12 a'         13 a"         14 a"      

             Final eigenvalues
             -----------------

              1      
    1   -1.3631
    2   -0.7330
    3   -0.5638
    4   -0.5119
    5    0.1698
    6    0.1898
    7    0.2136
    8    0.2266
    9    0.6790
   10    0.8731
   11    1.3190
   12    1.4028
   13    1.4099
   14    1.5831

                       ROHF Final Molecular Orbital Analysis
                       -------------------------------------

 Vector    1  Occ=2.000000D+00  E=-1.363087D+00  Symmetry=a'
              MO Center= -1.1D-01,  5.7D-03, -1.5D-16, r^2= 5.1D-01
   Bfn.  Coefficient  Atom+Function         Bfn.  Coefficient  Atom+Function  
  ----- ------------  ---------------      ----- ------------  ---------------
     1      0.443725  1 O  s                  2     -0.398405  1 O  s          
    17     -0.187516  3 H  s                 12     -0.182770  2 H  s          

 Vector    2  Occ=2.000000D+00  E=-7.329521D-01  Symmetry=a'
              MO Center= -1.6D-01, -4.9D-03, -4.4D-17, r^2= 7.9D-01
   Bfn.  Coefficient  Atom+Function         Bfn.  Coefficient  Atom+Function  
  ----- ------------  ---------------      ----- ------------  ---------------
     4      0.485832  1 O  py                17      0.375677  3 H  s          
    12     -0.355903  2 H  s                  7      0.225366  1 O  py         

 Vector    3  Occ=2.000000D+00  E=-5.638068D-01  Symmetry=a'
              MO Center=  1.4D-01,  7.8D-03, -5.4D-17, r^2= 7.2D-01
   Bfn.  Coefficient  Atom+Function         Bfn.  Coefficient  Atom+Function  
  ----- ------------  ---------------      ----- ------------  ---------------
     3      0.546276  1 O  px                 6      0.382337  1 O  px         
     2      0.279908  1 O  s                 17     -0.225055  3 H  s          
    12     -0.178259  2 H  s          

 Vector    4  Occ=2.000000D+00  E=-5.119264D-01  Symmetry=a"
              MO Center=  4.6D-02, -1.1D-02,  7.0D-17, r^2= 6.7D-01
   Bfn.  Coefficient  Atom+Function         Bfn.  Coefficient  Atom+Function  
  ----- ------------  ---------------      ----- ------------  ---------------
     5      0.621429  1 O  pz                 8      0.474545  1 O  pz         

 Vector    5  Occ=0.000000D+00  E= 1.697902D-01  Symmetry=a'
              MO Center= -5.3D-01,  4.6D-01,  1.3D-14, r^2= 4.0D+00
   Bfn.  Coefficient  Atom+Function         Bfn.  Coefficient  Atom+Function  
  ----- ------------  ---------------      ----- ------------  ---------------
    13      1.184502  2 H  s                 10      0.898628  1 O  py         
     2     -0.696705  1 O  s                  6      0.347139  1 O  px         
     9     -0.314723  1 O  px                 3      0.196934  1 O  px         

 Vector    6  Occ=0.000000D+00  E= 1.898294D-01  Symmetry=a'
              MO Center= -1.8D-01, -4.4D-01,  4.2D-15, r^2= 5.1D+00
   Bfn.  Coefficient  Atom+Function         Bfn.  Coefficient  Atom+Function  
  ----- ------------  ---------------      ----- ------------  ---------------
    10      0.900671  1 O  py                 7     -0.389172  1 O  py         
     9      0.389580  1 O  px                13     -0.324016  2 H  s          
     6     -0.214771  1 O  px                 2      0.203058  1 O  s          
     4     -0.178771  1 O  py         

 Vector    7  Occ=0.000000D+00  E= 2.136323D-01  Symmetry=a"
              MO Center=  5.2D-02, -8.6D-04,  2.0D-14, r^2= 5.7D+00
   Bfn.  Coefficient  Atom+Function         Bfn.  Coefficient  Atom+Function  
  ----- ------------  ---------------      ----- ------------  ---------------
    11      1.141225  1 O  pz                 8     -0.404606  1 O  pz         
     5     -0.190686  1 O  pz         

 Vector    8  Occ=0.000000D+00  E= 2.265803D-01  Symmetry=a'
              MO Center=  8.4D-01, -9.4D-02, -3.6D-14, r^2= 4.4D+00
   Bfn.  Coefficient  Atom+Function         Bfn.  Coefficient  Atom+Function  
  ----- ------------  ---------------      ----- ------------  ---------------
     9      1.112789  1 O  px                13      1.078352  2 H  s          
     2     -0.650249  1 O  s                  6     -0.194093  1 O  px         
     7      0.189998  1 O  py                10      0.161645  1 O  py         

 Vector    9  Occ=0.000000D+00  E= 6.789851D-01  Symmetry=a'
              MO Center= -2.5D-01,  3.1D-01, -1.0D-16, r^2= 1.3D+00
   Bfn.  Coefficient  Atom+Function         Bfn.  Coefficient  Atom+Function  
  ----- ------------  ---------------      ----- ------------  ---------------
    17      1.445423  3 H  s                  7     -0.608315  1 O  py         
    10     -0.465279  1 O  py                 4     -0.427097  1 O  py         
    13     -0.424632  2 H  s                 12     -0.421761  2 H  s          
     2     -0.234419  1 O  s          

 Vector   10  Occ=0.000000D+00  E= 8.730541D-01  Symmetry=a'
              MO Center= -4.8D-01, -5.7D-01, -6.0D-16, r^2= 1.3D+00
   Bfn.  Coefficient  Atom+Function         Bfn.  Coefficient  Atom+Function  
  ----- ------------  ---------------      ----- ------------  ---------------
    12      1.324367  2 H  s                 13     -1.197298  2 H  s          
    17      0.616745  3 H  s                 10     -0.317794  1 O  py         
     3      0.314272  1 O  px                15     -0.246695  2 H  py         
     6      0.201741  1 O  px                 1      0.173249  1 O  s          
     4      0.160585  1 O  py         

 Vector   11  Occ=0.000000D+00  E= 1.318963D+00  Symmetry=a'
              MO Center=  1.4D-01,  8.2D-02,  3.1D-15, r^2= 1.7D+00
   Bfn.  Coefficient  Atom+Function         Bfn.  Coefficient  Atom+Function  
  ----- ------------  ---------------      ----- ------------  ---------------
     7      1.570624  1 O  py                12      1.015823  2 H  s          
     6      0.939547  1 O  px                 2     -0.684838  1 O  s          
     4     -0.596287  1 O  py                15      0.397572  2 H  py         
    10     -0.383055  1 O  py                 3     -0.354599  1 O  px         
     9     -0.249866  1 O  px                14      0.239842  2 H  px         

 Vector   12  Occ=0.000000D+00  E= 1.402784D+00  Symmetry=a'
              MO Center= -9.5D-02, -2.6D-01,  1.5D-15, r^2= 1.3D+00
   Bfn.  Coefficient  Atom+Function         Bfn.  Coefficient  Atom+Function  
  ----- ------------  ---------------      ----- ------------  ---------------
     6      0.986016  1 O  px                 3     -0.770985  1 O  px         
     7     -0.596807  1 O  py                 4      0.477879  1 O  py         
     9     -0.364240  1 O  px                17      0.362238  3 H  s          
    14      0.331720  2 H  px                 2     -0.249928  1 O  s          
    15     -0.210800  2 H  py                10      0.150274  1 O  py         

 Vector   13  Occ=0.000000D+00  E= 1.409852D+00  Symmetry=a"
              MO Center=  9.6D-04, -7.6D-02,  3.1D-16, r^2= 1.5D+00
   Bfn.  Coefficient  Atom+Function         Bfn.  Coefficient  Atom+Function  
  ----- ------------  ---------------      ----- ------------  ---------------
     8      1.182903  1 O  pz                 5     -0.976223  1 O  pz         
    11     -0.475435  1 O  pz                16      0.179375  2 H  pz         

 Vector   14  Occ=0.000000D+00  E= 1.583131D+00  Symmetry=a"
              MO Center= -3.9D-01, -6.5D-01, -3.5D-16, r^2= 8.7D-01
   Bfn.  Coefficient  Atom+Function         Bfn.  Coefficient  Atom+Function  
  ----- ------------  ---------------      ----- ------------  ---------------
    16      1.070920  2 H  pz                 8     -0.675669  1 O  pz         
     5      0.167159  1 O  pz         


 center of mass
 --------------
 x =  -0.01467756 y =   0.00000000 z =   0.00000000

 moments of inertia (a.u.)
 ------------------
           4.560066697319           0.000000000000           0.000000000000
           0.000000000000           1.887016557810           0.000000000000
           0.000000000000           0.000000000000           6.447083255129

  Mulliken analysis of the total density
  --------------------------------------

    Atom       Charge   Shell Charges
 -----------   ------   -------------------------------------------------------
    1 O    6     6.48   0.86  0.86  2.77  1.85  0.14
    2 H    1     0.79   0.69  0.02  0.09
    3 H    1     0.72   0.72

       Multipole analysis of the density wrt the origin
       ------------------------------------------------

     L   x y z        total         open         nuclear
     -   - - -        -----         ----         -------
     0   0 0 0      0.000000      0.000000      8.000000

     1   1 0 0     -0.916592      0.000000     -1.251621
     1   0 1 0      0.008330      0.000000      0.000000
     1   0 0 1      0.000000      0.000000      0.000000

     2   2 0 0     -4.745502      0.000000      1.777057
     2   1 1 0      0.035721      0.000000      0.000000
     2   1 0 1      0.000000      0.000000      0.000000
     2   0 2 0     -2.980752      0.000000      4.524661
     2   0 1 1      0.000000      0.000000      0.000000
     2   0 0 2     -5.647185      0.000000      0.000000


 Parallel integral file used       1 records with       0 large values

 Line search: 
     step= 1.00 grad=-7.2D-02 hess= 2.8D-02 energy=    -16.903550 mode=downhill
 new step= 1.29                   predicted energy=    -16.905853

          --------
          Step   1
          --------


                         Geometry "geometry" -> "geometry"
                         ---------------------------------

 Output coordinates in a.u. (scale by  1.000000000 to convert to a.u.)

  No.       Tag          Charge          X              Y              Z
 ---- ---------------- ---------- -------------- -------------- --------------
    1 o                    8.0000     0.08943667     0.00000000     0.00000000
    2 h1                   1.0000    -0.92109870    -1.41016588     0.00000000
    3 h2                   1.0000    -0.92109870     1.41016588     0.00000000

      Atomic Mass 
      ----------- 

      o                 15.994910
      h1                 1.007825
      h2                 1.007825


 Effective nuclear repulsion energy (a.u.)       9.5771986026

            Nuclear Dipole moment (a.u.) 
            ----------------------------
        X                 Y               Z
 ---------------- ---------------- ----------------
    -1.1267040638     0.0000000000     0.0000000000

      Symmetry information
      --------------------

 Group name             Cs        
 Group number              2
 Group order               2
 No. of unique centers     3

      Symmetry unique atoms

     1    2    3

                                 NWChem SCF Module
                                 -----------------


                                        h2o



  ao basis        = "ao basis"
  functions       =    17
  atoms           =     3
  closed shells   =     4
  open shells     =     0
  charge          =   0.00
  wavefunction    = RHF 
  input vectors   = ./prop_h2o_run.movecs
  output vectors  = ./prop_h2o_run.movecs
  use symmetry    = T
  symmetry adapt  = T


 Summary of "ao basis" -> "ao basis" (cartesian)
 ------------------------------------------------------------------------------
       Tag                 Description            Shells   Functions and Types
 ---------------- ------------------------------  ------  ---------------------
 h1                         cc-pvdz                  3        5   2s1p
 h2                          sto-3g                  1        1   1s
 o                     Stuttgart RLC ECP             5       11   2s3p


      Symmetry analysis of basis
      --------------------------

        a'         13
        a"          4


 Forming initial guess at       0.2s


 Loading old vectors from job with title :

h2o


      Symmetry analysis of molecular orbitals - initial
      -------------------------------------------------

  Numbering of irreducible representations: 

     1 a'          2 a"      

  Orbital symmetries:

     1 a'          2 a'          3 a'          4 a"          5 a'      
     6 a'          7 a"          8 a'          9 a'         10 a'      
    11 a'         12 a'         13 a"         14 a"      


 Starting SCF solution at       0.3s



 ----------------------------------------------
         Quadratically convergent ROHF

 Convergence threshold     :          1.000E-04
 Maximum no. of iterations :           30
 Final Fock-matrix accuracy:          1.000E-07
 ----------------------------------------------


 #quartets = 1.035D+03 #integrals = 6.434D+03 #direct =  0.0% #cached =100.0%


 Integral file          = ./prop_h2o_run.aoints.0
 Record size in doubles =  65536        No. of integs per rec  =  43688
 Max. records in memory =      2        Max. records in file   = 162135
 No. of bits per label  =      8        No. of bits per value  =     64


              iter       energy          gnorm     gmax       time
             ----- ------------------- --------- --------- --------
                 1      -16.8983806189  1.65D-01  7.84D-02      0.2
                 2      -16.9000167436  7.47D-03  3.83D-03      0.2
                 3      -16.9000255402  2.17D-05  1.03D-05      0.2


       Final RHF  results 
       ------------------ 

         Total SCF energy =    -16.900025540199
      One-electron energy =    -41.863366747175
      Two-electron energy =     17.691800201260
 Nuclear repulsion energy =      7.271541005716

        Time for solution =      0.0s



       Symmetry analysis of molecular orbitals - final
       -----------------------------------------------

  Numbering of irreducible representations: 

     1 a'          2 a"      

  Orbital symmetries:

     1 a'          2 a'          3 a'          4 a"          5 a'      
     6 a'          7 a"          8 a'          9 a'         10 a'      
    11 a'         12 a'         13 a"         14 a"      

             Final eigenvalues
             -----------------

              1      
    1   -1.3908
    2   -0.7552
    3   -0.5768
    4   -0.5172
    5    0.1726
    6    0.1903
    7    0.2127
    8    0.2305
    9    0.7314
   10    0.9335
   11    1.3009
   12    1.4041
   13    1.4120
   14    1.5857

                       ROHF Final Molecular Orbital Analysis
                       -------------------------------------

 Vector    1  Occ=2.000000D+00  E=-1.390793D+00  Symmetry=a'
              MO Center= -1.4D-01,  5.9D-03, -2.0D-16, r^2= 4.9D-01
   Bfn.  Coefficient  Atom+Function         Bfn.  Coefficient  Atom+Function  
  ----- ------------  ---------------      ----- ------------  ---------------
     1      0.442099  1 O  s                  2     -0.366096  1 O  s          
    17     -0.207862  3 H  s                 12     -0.202151  2 H  s          

 Vector    2  Occ=2.000000D+00  E=-7.551734D-01  Symmetry=a'
              MO Center= -1.6D-01, -4.2D-03, -4.7D-17, r^2= 7.5D-01
   Bfn.  Coefficient  Atom+Function         Bfn.  Coefficient  Atom+Function  
  ----- ------------  ---------------      ----- ------------  ---------------
     4      0.493243  1 O  py                17      0.385069  3 H  s          
    12     -0.370841  2 H  s                  7      0.208855  1 O  py         

 Vector    3  Occ=2.000000D+00  E=-5.767629D-01  Symmetry=a'
              MO Center=  1.5D-01,  8.1D-03, -8.7D-17, r^2= 6.9D-01
   Bfn.  Coefficient  Atom+Function         Bfn.  Coefficient  Atom+Function  
  ----- ------------  ---------------      ----- ------------  ---------------
     3      0.547641  1 O  px                 6      0.370947  1 O  px         
     2      0.303460  1 O  s                 17     -0.229246  3 H  s          
    12     -0.181488  2 H  s                  1     -0.154299  1 O  s          

 Vector    4  Occ=2.000000D+00  E=-5.171533D-01  Symmetry=a"
              MO Center=  3.9D-02, -1.2D-02,  5.7D-17, r^2= 6.7D-01
   Bfn.  Coefficient  Atom+Function         Bfn.  Coefficient  Atom+Function  
  ----- ------------  ---------------      ----- ------------  ---------------
     5      0.621185  1 O  pz                 8      0.473589  1 O  pz         

 Vector    5  Occ=0.000000D+00  E= 1.726228D-01  Symmetry=a'
              MO Center= -5.2D-01,  5.1D-01,  1.4D-14, r^2= 4.2D+00
   Bfn.  Coefficient  Atom+Function         Bfn.  Coefficient  Atom+Function  
  ----- ------------  ---------------      ----- ------------  ---------------
    13      1.104058  2 H  s                 10      0.930651  1 O  py         
     2     -0.647726  1 O  s                  9     -0.377148  1 O  px         
     6      0.333753  1 O  px                 3      0.181879  1 O  px         

 Vector    6  Occ=0.000000D+00  E= 1.902797D-01  Symmetry=a'
              MO Center= -2.1D-01, -4.2D-01,  5.3D-15, r^2= 5.1D+00
   Bfn.  Coefficient  Atom+Function         Bfn.  Coefficient  Atom+Function  
  ----- ------------  ---------------      ----- ------------  ---------------
    10      0.857381  1 O  py                 9      0.479270  1 O  px         
     7     -0.356653  1 O  py                13     -0.334895  2 H  s          
     6     -0.240268  1 O  px                 2      0.207375  1 O  s          
     4     -0.159994  1 O  py         

 Vector    7  Occ=0.000000D+00  E= 2.126868D-01  Symmetry=a"
              MO Center=  4.7D-02, -7.9D-04,  2.0D-14, r^2= 5.7D+00
   Bfn.  Coefficient  Atom+Function         Bfn.  Coefficient  Atom+Function  
  ----- ------------  ---------------      ----- ------------  ---------------
    11      1.141541  1 O  pz                 8     -0.403732  1 O  pz         
     5     -0.189270  1 O  pz         

 Vector    8  Occ=0.000000D+00  E= 2.305285D-01  Symmetry=a'
              MO Center=  8.3D-01, -1.6D-01, -3.9D-14, r^2= 4.2D+00
   Bfn.  Coefficient  Atom+Function         Bfn.  Coefficient  Atom+Function  
  ----- ------------  ---------------      ----- ------------  ---------------
    13      1.225471  2 H  s                  9      1.057563  1 O  px         
     2     -0.746972  1 O  s                  7      0.207252  1 O  py         
    10      0.168899  1 O  py                 6     -0.154373  1 O  px         

 Vector    9  Occ=0.000000D+00  E= 7.314067D-01  Symmetry=a'
              MO Center= -2.5D-01,  2.1D-01,  7.9D-18, r^2= 1.3D+00
   Bfn.  Coefficient  Atom+Function         Bfn.  Coefficient  Atom+Function  
  ----- ------------  ---------------      ----- ------------  ---------------
    17      1.449428  3 H  s                  7     -0.667474  1 O  py         
    12     -0.551519  2 H  s                  4     -0.439823  1 O  py         
    10     -0.385574  1 O  py                13     -0.326641  2 H  s          
     2     -0.266385  1 O  s          

 Vector   10  Occ=0.000000D+00  E= 9.335328D-01  Symmetry=a'
              MO Center= -4.8D-01, -4.8D-01, -5.2D-16, r^2= 1.3D+00
   Bfn.  Coefficient  Atom+Function         Bfn.  Coefficient  Atom+Function  
  ----- ------------  ---------------      ----- ------------  ---------------
    12      1.269849  2 H  s                 13     -1.166416  2 H  s          
    17      0.761985  3 H  s                  3      0.350648  1 O  px         
    10     -0.324031  1 O  py                15     -0.298689  2 H  py         
     6      0.209835  1 O  px                 1      0.200365  1 O  s          

 Vector   11  Occ=0.000000D+00  E= 1.300896D+00  Symmetry=a'
              MO Center=  1.3D-01,  7.7D-02,  3.5D-15, r^2= 1.7D+00
   Bfn.  Coefficient  Atom+Function         Bfn.  Coefficient  Atom+Function  
  ----- ------------  ---------------      ----- ------------  ---------------
     7      1.582715  1 O  py                12      1.072541  2 H  s          
     6      0.942581  1 O  px                 2     -0.768703  1 O  s          
     4     -0.590165  1 O  py                10     -0.397316  1 O  py         
    15      0.351126  2 H  py                 3     -0.322814  1 O  px         
    14      0.262139  2 H  px                 9     -0.237882  1 O  px         

 Vector   12  Occ=0.000000D+00  E= 1.404106D+00  Symmetry=a'
              MO Center= -6.6D-02, -2.2D-01,  1.9D-15, r^2= 1.4D+00
   Bfn.  Coefficient  Atom+Function         Bfn.  Coefficient  Atom+Function  
  ----- ------------  ---------------      ----- ------------  ---------------
     6      1.073161  1 O  px                 3     -0.777719  1 O  px         
     7     -0.633254  1 O  py                 4      0.494853  1 O  py         
    17      0.442804  3 H  s                  9     -0.374316  1 O  px         
     2     -0.327319  1 O  s                 14      0.275842  2 H  px         
    12      0.194789  2 H  s                 15     -0.177711  2 H  py         

 Vector   13  Occ=0.000000D+00  E= 1.411983D+00  Symmetry=a"
              MO Center=  2.9D-02, -2.5D-02,  6.0D-16, r^2= 1.5D+00
   Bfn.  Coefficient  Atom+Function         Bfn.  Coefficient  Atom+Function  
  ----- ------------  ---------------      ----- ------------  ---------------
     8      1.242822  1 O  pz                 5     -0.989518  1 O  pz         
    11     -0.483800  1 O  pz         

 Vector   14  Occ=0.000000D+00  E= 1.585662D+00  Symmetry=a"
              MO Center= -4.1D-01, -6.4D-01, -8.3D-16, r^2= 7.7D-01
   Bfn.  Coefficient  Atom+Function         Bfn.  Coefficient  Atom+Function  
  ----- ------------  ---------------      ----- ------------  ---------------
    16      1.097069  2 H  pz                 8     -0.584463  1 O  pz         


 center of mass
 --------------
 x =  -0.02365730 y =   0.00000000 z =   0.00000000

 moments of inertia (a.u.)
 ------------------
           4.008256719473           0.000000000000           0.000000000000
           0.000000000000           1.827985484489           0.000000000000
           0.000000000000           0.000000000000           5.836242203962

  Mulliken analysis of the total density
  --------------------------------------

    Atom       Charge   Shell Charges
 -----------   ------   -------------------------------------------------------
    1 O    6     6.41   0.86  0.82  2.81  1.79  0.13
    2 H    1     0.83   0.73  0.00  0.10
    3 H    1     0.76   0.76

       Multipole analysis of the density wrt the origin
       ------------------------------------------------

     L   x y z        total         open         nuclear
     -   - - -        -----         ----         -------
     0   0 0 0      0.000000      0.000000      8.000000

     1   1 0 0     -0.915238      0.000000     -1.305577
     1   0 1 0      0.007900      0.000000      0.000000
     1   0 0 1      0.000000      0.000000      0.000000

     2   2 0 0     -4.652507      0.000000      1.744839
     2   1 1 0      0.033817      0.000000      0.000000
     2   1 0 1      0.000000      0.000000      0.000000
     2   0 2 0     -3.167631      0.000000      3.977136
     2   0 1 1      0.000000      0.000000      0.000000
     2   0 0 2     -5.554112      0.000000      0.000000


 Parallel integral file used       1 records with       0 large values

                              NWChem Gradients Module
                              -----------------------


                                        h2o


  wavefunction    =   RHF     

  Using symmetry


                         RHF ENERGY GRADIENTS

    atom               coordinates                        gradient
                 x          y          z           x          y          z
   1 o       0.089437   0.000000   0.000000   -0.054202   0.021995   0.000000
   2 h1     -0.921099  -1.410166   0.000000    0.019219   0.031245   0.000000
   3 h2     -0.921099   1.410166   0.000000    0.034983  -0.053240   0.000000

                 ----------------------------------------
                 |  Time  |  1-e(secs)   |  2-e(secs)   |
                 ----------------------------------------
                 |  CPU   |       0.00   |       0.05   |
                 ----------------------------------------
                 |  WALL  |       0.00   |       0.05   |
                 ----------------------------------------

  Step       Energy      Delta E   Gmax     Grms     Xrms     Xmax   Walltime
  ---- ---------------- -------- -------- -------- -------- -------- --------
@    1     -16.90002554 -4.0D-02  0.06365  0.04241  0.20061  0.42395      0.4
                                                                    



                                Z-matrix (autoz)
                                -------- 

 Units are Angstrom for bonds and degrees for angles

      Type          Name      I     J     K     L     M      Value     Gradient
      ----------- --------  ----- ----- ----- ----- ----- ---------- ----------
    1 Stretch                  1     2                       0.91805   -0.03659
    2 Stretch                  1     3                       0.91805   -0.06365
    3 Bend                     2     1     3               108.74867   -0.00237

                                 NWChem SCF Module
                                 -----------------


                                        h2o



  ao basis        = "ao basis"
  functions       =    17
  atoms           =     3
  closed shells   =     4
  open shells     =     0
  charge          =   0.00
  wavefunction    = RHF 
  input vectors   = ./prop_h2o_run.movecs
  output vectors  = ./prop_h2o_run.movecs
  use symmetry    = T
  symmetry adapt  = T


 Summary of "ao basis" -> "ao basis" (cartesian)
 ------------------------------------------------------------------------------
       Tag                 Description            Shells   Functions and Types
 ---------------- ------------------------------  ------  ---------------------
 h1                         cc-pvdz                  3        5   2s1p
 h2                          sto-3g                  1        1   1s
 o                     Stuttgart RLC ECP             5       11   2s3p


      Symmetry analysis of basis
      --------------------------

        a'         13
        a"          4


 Forming initial guess at       0.4s


 Loading old vectors from job with title :

h2o


      Symmetry analysis of molecular orbitals - initial
      -------------------------------------------------

  Numbering of irreducible representations: 

     1 a'          2 a"      

  Orbital symmetries:

     1 a'          2 a'          3 a'          4 a"          5 a'      
     6 a'          7 a"          8 a'          9 a'         10 a'      
    11 a'         12 a'         13 a"         14 a"      


 Starting SCF solution at       0.4s



 ----------------------------------------------
         Quadratically convergent ROHF

 Convergence threshold     :          1.000E-04
 Maximum no. of iterations :           30
 Final Fock-matrix accuracy:          1.000E-07
 ----------------------------------------------


 #quartets = 1.035D+03 #integrals = 6.465D+03 #direct =  0.0% #cached =100.0%


 Integral file          = ./prop_h2o_run.aoints.0
 Record size in doubles =  65536        No. of integs per rec  =  43688
 Max. records in memory =      2        Max. records in file   = 162135
 No. of bits per label  =      8        No. of bits per value  =     64


              iter       energy          gnorm     gmax       time
             ----- ------------------- --------- --------- --------
                 1      -16.8990849968  2.45D-01  1.17D-01      0.3
                 2      -16.9025036867  7.12D-02  3.44D-02      0.3
                 3      -16.9028329641  3.84D-03  2.27D-03      0.3
                 4      -16.9028359812  8.16D-06  3.68D-06      0.3


       Final RHF  results 
       ------------------ 

         Total SCF energy =    -16.902835981202
      One-electron energy =    -41.097914088210
      Two-electron energy =     17.400687507202
 Nuclear repulsion energy =      6.794390599807

        Time for solution =      0.0s



       Symmetry analysis of molecular orbitals - final
       -----------------------------------------------

  Numbering of irreducible representations: 

     1 a'          2 a"      

  Orbital symmetries:

     1 a'          2 a'          3 a'          4 a"          5 a'      
     6 a'          7 a"          8 a'          9 a'         10 a'      
    11 a'         12 a"         13 a'         14 a"      

             Final eigenvalues
             -----------------

              1      
    1   -1.3552
    2   -0.7183
    3   -0.5639
    4   -0.5108
    5    0.1689
    6    0.1908
    7    0.2139
    8    0.2274
    9    0.6248
   10    0.8801
   11    1.3195
   12    1.4107
   13    1.4153
   14    1.5842

                       ROHF Final Molecular Orbital Analysis
                       -------------------------------------

 Vector    1  Occ=2.000000D+00  E=-1.355234D+00  Symmetry=a'
              MO Center= -9.8D-02, -2.8D-02, -1.5D-16, r^2= 5.1D-01
   Bfn.  Coefficient  Atom+Function         Bfn.  Coefficient  Atom+Function  
  ----- ------------  ---------------      ----- ------------  ---------------
     1      0.442387  1 O  s                  2     -0.406305  1 O  s          
    12     -0.190407  2 H  s                 17     -0.168314  3 H  s          

 Vector    2  Occ=2.000000D+00  E=-7.183315D-01  Symmetry=a'
              MO Center= -1.4D-01,  1.3D-03, -6.4D-17, r^2= 8.1D-01
   Bfn.  Coefficient  Atom+Function         Bfn.  Coefficient  Atom+Function  
  ----- ------------  ---------------      ----- ------------  ---------------
     4      0.482548  1 O  py                12     -0.362479  2 H  s          
    17      0.359566  3 H  s                  7      0.236333  1 O  py         

 Vector    3  Occ=2.000000D+00  E=-5.639293D-01  Symmetry=a'
              MO Center=  1.4D-01,  1.0D-03, -4.6D-17, r^2= 7.4D-01
   Bfn.  Coefficient  Atom+Function         Bfn.  Coefficient  Atom+Function  
  ----- ------------  ---------------      ----- ------------  ---------------
     3      0.540185  1 O  px                 6      0.378394  1 O  px         
     2      0.276996  1 O  s                 17     -0.243293  3 H  s          
    12     -0.172419  2 H  s                  1     -0.151246  1 O  s          

 Vector    4  Occ=2.000000D+00  E=-5.107747D-01  Symmetry=a"
              MO Center=  6.3D-02, -2.9D-02,  7.6D-17, r^2= 6.7D-01
   Bfn.  Coefficient  Atom+Function         Bfn.  Coefficient  Atom+Function  
  ----- ------------  ---------------      ----- ------------  ---------------
     5      0.622003  1 O  pz                 8      0.472965  1 O  pz         

 Vector    5  Occ=0.000000D+00  E= 1.688752D-01  Symmetry=a'
              MO Center= -5.4D-01,  4.1D-01,  1.3D-14, r^2= 3.9D+00
   Bfn.  Coefficient  Atom+Function         Bfn.  Coefficient  Atom+Function  
  ----- ------------  ---------------      ----- ------------  ---------------
    13      1.175316  2 H  s                 10      0.863221  1 O  py         
     2     -0.705046  1 O  s                  6      0.364875  1 O  px         
     9     -0.309263  1 O  px                 3      0.208670  1 O  px         

 Vector    6  Occ=0.000000D+00  E= 1.907979D-01  Symmetry=a'
              MO Center= -1.3D-01, -3.9D-01,  3.9D-15, r^2= 5.2D+00
   Bfn.  Coefficient  Atom+Function         Bfn.  Coefficient  Atom+Function  
  ----- ------------  ---------------      ----- ------------  ---------------
    10      0.918982  1 O  py                 9      0.409000  1 O  px         
     7     -0.386573  1 O  py                13     -0.283749  2 H  s          
     6     -0.210536  1 O  px                 4     -0.178616  1 O  py         
     2      0.171701  1 O  s          

 Vector    7  Occ=0.000000D+00  E= 2.138698D-01  Symmetry=a"
              MO Center=  7.0D-02, -1.9D-02,  2.0D-14, r^2= 5.7D+00
   Bfn.  Coefficient  Atom+Function         Bfn.  Coefficient  Atom+Function  
  ----- ------------  ---------------      ----- ------------  ---------------
    11      1.141124  1 O  pz                 8     -0.404527  1 O  pz         
     5     -0.191069  1 O  pz         

 Vector    8  Occ=0.000000D+00  E= 2.273811D-01  Symmetry=a'
              MO Center=  8.6D-01, -1.4D-01, -3.6D-14, r^2= 4.4D+00
   Bfn.  Coefficient  Atom+Function         Bfn.  Coefficient  Atom+Function  
  ----- ------------  ---------------      ----- ------------  ---------------
     9      1.114227  1 O  px                13      1.088474  2 H  s          
     2     -0.655495  1 O  s                  7      0.195669  1 O  py         
     6     -0.185891  1 O  px         

 Vector    9  Occ=0.000000D+00  E= 6.248150D-01  Symmetry=a'
              MO Center= -2.4D-01,  3.5D-01, -2.1D-16, r^2= 1.4D+00
   Bfn.  Coefficient  Atom+Function         Bfn.  Coefficient  Atom+Function  
  ----- ------------  ---------------      ----- ------------  ---------------
    17      1.415902  3 H  s                  7     -0.570383  1 O  py         
    13     -0.526037  2 H  s                 10     -0.512313  1 O  py         
     4     -0.405860  1 O  py                12     -0.347827  2 H  s          

 Vector   10  Occ=0.000000D+00  E= 8.800777D-01  Symmetry=a'
              MO Center= -4.7D-01, -6.0D-01, -4.3D-16, r^2= 1.3D+00
   Bfn.  Coefficient  Atom+Function         Bfn.  Coefficient  Atom+Function  
  ----- ------------  ---------------      ----- ------------  ---------------
    12      1.340349  2 H  s                 13     -1.174652  2 H  s          
    17      0.518198  3 H  s                  3      0.321981  1 O  px         
    10     -0.300016  1 O  py                15     -0.247718  2 H  py         
     6      0.180761  1 O  px                 4      0.178369  1 O  py         
     1      0.166845  1 O  s          

 Vector   11  Occ=0.000000D+00  E= 1.319523D+00  Symmetry=a'
              MO Center=  1.5D-01,  7.1D-02,  3.7D-15, r^2= 1.7D+00
   Bfn.  Coefficient  Atom+Function         Bfn.  Coefficient  Atom+Function  
  ----- ------------  ---------------      ----- ------------  ---------------
     7      1.520500  1 O  py                12      1.031799  2 H  s          
     6      1.011846  1 O  px                 2     -0.719499  1 O  s          
     4     -0.574381  1 O  py                 3     -0.382901  1 O  px         
    10     -0.377489  1 O  py                15      0.372908  2 H  py         
     9     -0.268503  1 O  px                14      0.268603  2 H  px         

 Vector   12  Occ=0.000000D+00  E= 1.410694D+00  Symmetry=a"
              MO Center=  2.1D-02, -8.7D-02,  1.6D-16, r^2= 1.5D+00
   Bfn.  Coefficient  Atom+Function         Bfn.  Coefficient  Atom+Function  
  ----- ------------  ---------------      ----- ------------  ---------------
     8      1.189938  1 O  pz                 5     -0.977979  1 O  pz         
    11     -0.476504  1 O  pz                16      0.167913  2 H  pz         

 Vector   13  Occ=0.000000D+00  E= 1.415264D+00  Symmetry=a'
              MO Center= -8.3D-02, -3.0D-01,  7.7D-16, r^2= 1.3D+00
   Bfn.  Coefficient  Atom+Function         Bfn.  Coefficient  Atom+Function  
  ----- ------------  ---------------      ----- ------------  ---------------
     6      0.920898  1 O  px                 3     -0.741641  1 O  px         
     7     -0.643596  1 O  py                 4      0.514174  1 O  py         
    17      0.364726  3 H  s                  9     -0.346578  1 O  px         
    14      0.332781  2 H  px                15     -0.252796  2 H  py         
     2     -0.177398  1 O  s                 10      0.152130  1 O  py         

 Vector   14  Occ=0.000000D+00  E= 1.584191D+00  Symmetry=a"
              MO Center= -3.9D-01, -6.5D-01, -4.3D-16, r^2= 8.6D-01
   Bfn.  Coefficient  Atom+Function         Bfn.  Coefficient  Atom+Function  
  ----- ------------  ---------------      ----- ------------  ---------------
    16      1.074464  2 H  pz                 8     -0.667170  1 O  pz         
     5      0.153477  1 O  pz         


 center of mass
 --------------
 x =   0.01334095 y =  -0.02792565 z =   0.00000000

 moments of inertia (a.u.)
 ------------------
           4.620689747619           0.133783917310           0.000000000000
           0.133783917310           2.077526558365           0.000000000000
           0.000000000000           0.000000000000           6.698216305985

  Mulliken analysis of the total density
  --------------------------------------

    Atom       Charge   Shell Charges
 -----------   ------   -------------------------------------------------------
    1 O    6     6.49   0.86  0.88  2.74  1.86  0.15
    2 H    1     0.80   0.70  0.01  0.09
    3 H    1     0.70   0.70

       Multipole analysis of the density wrt the origin
       ------------------------------------------------

     L   x y z        total         open         nuclear
     -   - - -        -----         ----         -------
     0   0 0 0      0.000000      0.000000      8.000000

     1   1 0 0     -0.941143      0.000000     -1.083266
     1   0 1 0      0.039493      0.000000     -0.167797
     1   0 0 1      0.000000      0.000000      0.000000

     2   2 0 0     -4.740530      0.000000      1.887605
     2   1 1 0      0.020152      0.000000     -0.095048
     2   1 0 1      0.000000      0.000000      0.000000
     2   0 2 0     -3.009818      0.000000      4.587633
     2   0 1 1      0.000000      0.000000      0.000000
     2   0 0 2     -5.674710      0.000000      0.000000


 Parallel integral file used       1 records with       0 large values

 Line search: 
     step= 1.00 grad=-1.4D-02 hess= 1.1D-02 energy=    -16.902836 mode=downhill
 new step= 0.63                   predicted energy=    -16.904319

          --------
          Step   2
          --------


                         Geometry "geometry" -> "geometry"
                         ---------------------------------

 Output coordinates in a.u. (scale by  1.000000000 to convert to a.u.)

  No.       Tag          Charge          X              Y              Z
 ---- ---------------- ---------- -------------- -------------- --------------
    1 o                    8.0000     0.11755415    -0.02114765     0.00000000
    2 h1                   1.0000    -0.92757709    -1.46447076     0.00000000
    3 h2                   1.0000    -0.94273780     1.48561841     0.00000000

      Atomic Mass 
      ----------- 

      o                 15.994910
      h1                 1.007825
      h2                 1.007825


 Effective nuclear repulsion energy (a.u.)       9.1704189330

            Nuclear Dipole moment (a.u.) 
            ----------------------------
        X                 Y               Z
 ---------------- ---------------- ----------------
    -0.9298816587    -0.1480335530     0.0000000000

      Symmetry information
      --------------------

 Group name             Cs        
 Group number              2
 Group order               2
 No. of unique centers     3

      Symmetry unique atoms

     1    2    3

                                 NWChem SCF Module
                                 -----------------


                                        h2o



  ao basis        = "ao basis"
  functions       =    17
  atoms           =     3
  closed shells   =     4
  open shells     =     0
  charge          =   0.00
  wavefunction    = RHF 
  input vectors   = ./prop_h2o_run.movecs
  output vectors  = ./prop_h2o_run.movecs
  use symmetry    = T
  symmetry adapt  = T


 Summary of "ao basis" -> "ao basis" (cartesian)
 ------------------------------------------------------------------------------
       Tag                 Description            Shells   Functions and Types
 ---------------- ------------------------------  ------  ---------------------
 h1                         cc-pvdz                  3        5   2s1p
 h2                          sto-3g                  1        1   1s
 o                     Stuttgart RLC ECP             5       11   2s3p


      Symmetry analysis of basis
      --------------------------

        a'         13
        a"          4


 Forming initial guess at       0.4s


 Loading old vectors from job with title :

h2o


      Symmetry analysis of molecular orbitals - initial
      -------------------------------------------------

  Numbering of irreducible representations: 

     1 a'          2 a"      

  Orbital symmetries:

     1 a'          2 a'          3 a'          4 a"          5 a'      
     6 a'          7 a"          8 a'          9 a'         10 a'      
    11 a'         12 a"         13 a'         14 a"      


 Starting SCF solution at       0.4s



 ----------------------------------------------
         Quadratically convergent ROHF

 Convergence threshold     :          1.000E-04
 Maximum no. of iterations :           30
 Final Fock-matrix accuracy:          1.000E-07
 ----------------------------------------------


 #quartets = 1.035D+03 #integrals = 6.465D+03 #direct =  0.0% #cached =100.0%


 Integral file          = ./prop_h2o_run.aoints.0
 Record size in doubles =  65536        No. of integs per rec  =  43688
 Max. records in memory =      2        Max. records in file   = 162134
 No. of bits per label  =      8        No. of bits per value  =     64


              iter       energy          gnorm     gmax       time
             ----- ------------------- --------- --------- --------
                 1      -16.9036155726  8.37D-02  3.87D-02      0.3
                 2      -16.9040612581  4.12D-03  2.40D-03      0.3
                 3      -16.9040644053  1.49D-05  6.50D-06      0.3


       Final RHF  results 
       ------------------ 

         Total SCF energy =    -16.904064405268
      One-electron energy =    -41.371136362694
      Two-electron energy =     17.504515675261
 Nuclear repulsion energy =      6.962556282164

        Time for solution =      0.0s



       Symmetry analysis of molecular orbitals - final
       -----------------------------------------------

  Numbering of irreducible representations: 

     1 a'          2 a"      

  Orbital symmetries:

     1 a'          2 a'          3 a'          4 a"          5 a'      
     6 a'          7 a"          8 a'          9 a'         10 a'      
    11 a'         12 a"         13 a'         14 a"      

             Final eigenvalues
             -----------------

              1      
    1   -1.3676
    2   -0.7316
    3   -0.5688
    4   -0.5131
    5    0.1706
    6    0.1906
    7    0.2134
    8    0.2284
    9    0.6624
   10    0.8979
   11    1.3124
   12    1.4114
   13    1.4121
   14    1.5844

                       ROHF Final Molecular Orbital Analysis
                       -------------------------------------

 Vector    1  Occ=2.000000D+00  E=-1.367632D+00  Symmetry=a'
              MO Center= -1.1D-01, -1.6D-02, -1.7D-16, r^2= 5.0D-01
   Bfn.  Coefficient  Atom+Function         Bfn.  Coefficient  Atom+Function  
  ----- ------------  ---------------      ----- ------------  ---------------
     1      0.442064  1 O  s                  2     -0.392947  1 O  s          
    12     -0.194793  2 H  s                 17     -0.181705  3 H  s          

 Vector    2  Occ=2.000000D+00  E=-7.316012D-01  Symmetry=a'
              MO Center= -1.5D-01,  6.2D-04, -5.8D-17, r^2= 7.9D-01
   Bfn.  Coefficient  Atom+Function         Bfn.  Coefficient  Atom+Function  
  ----- ------------  ---------------      ----- ------------  ---------------
     4      0.486452  1 O  py                17      0.368883  3 H  s          
    12     -0.365179  2 H  s                  7      0.226883  1 O  py         

 Vector    3  Occ=2.000000D+00  E=-5.687612D-01  Symmetry=a'
              MO Center=  1.5D-01,  2.7D-03, -6.3D-17, r^2= 7.2D-01
   Bfn.  Coefficient  Atom+Function         Bfn.  Coefficient  Atom+Function  
  ----- ------------  ---------------      ----- ------------  ---------------
     3      0.543145  1 O  px                 6      0.376003  1 O  px         
     2      0.286644  1 O  s                 17     -0.237565  3 H  s          
    12     -0.176137  2 H  s                  1     -0.152500  1 O  s          

 Vector    4  Occ=2.000000D+00  E=-5.130585D-01  Symmetry=a"
              MO Center=  5.4D-02, -2.3D-02,  6.9D-17, r^2= 6.7D-01
   Bfn.  Coefficient  Atom+Function         Bfn.  Coefficient  Atom+Function  
  ----- ------------  ---------------      ----- ------------  ---------------
     5      0.621608  1 O  pz                 8      0.473288  1 O  pz         

 Vector    5  Occ=0.000000D+00  E= 1.706389D-01  Symmetry=a'
              MO Center= -5.4D-01,  4.5D-01,  1.3D-14, r^2= 4.0D+00
   Bfn.  Coefficient  Atom+Function         Bfn.  Coefficient  Atom+Function  
  ----- ------------  ---------------      ----- ------------  ---------------
    13      1.152621  2 H  s                 10      0.888600  1 O  py         
     2     -0.686459  1 O  s                  6      0.354890  1 O  px         
     9     -0.337644  1 O  px                 3      0.199033  1 O  px         

 Vector    6  Occ=0.000000D+00  E= 1.906175D-01  Symmetry=a'
              MO Center= -1.6D-01, -4.0D-01,  4.3D-15, r^2= 5.2D+00
   Bfn.  Coefficient  Atom+Function         Bfn.  Coefficient  Atom+Function  
  ----- ------------  ---------------      ----- ------------  ---------------
    10      0.899020  1 O  py                 9      0.433557  1 O  px         
     7     -0.375324  1 O  py                13     -0.301057  2 H  s          
     6     -0.221502  1 O  px                 2      0.184466  1 O  s          
     4     -0.171436  1 O  py         

 Vector    7  Occ=0.000000D+00  E= 2.134434D-01  Symmetry=a"
              MO Center=  6.2D-02, -1.2D-02,  2.0D-14, r^2= 5.7D+00
   Bfn.  Coefficient  Atom+Function         Bfn.  Coefficient  Atom+Function  
  ----- ------------  ---------------      ----- ------------  ---------------
    11      1.141278  1 O  pz                 8     -0.404290  1 O  pz         
     5     -0.190439  1 O  pz         

 Vector    8  Occ=0.000000D+00  E= 2.284474D-01  Symmetry=a'
              MO Center=  8.5D-01, -1.5D-01, -3.7D-14, r^2= 4.3D+00
   Bfn.  Coefficient  Atom+Function         Bfn.  Coefficient  Atom+Function  
  ----- ------------  ---------------      ----- ------------  ---------------
    13      1.140306  2 H  s                  9      1.094223  1 O  px         
     2     -0.690567  1 O  s                  7      0.199734  1 O  py         
     6     -0.173175  1 O  px         

 Vector    9  Occ=0.000000D+00  E= 6.623808D-01  Symmetry=a'
              MO Center= -2.5D-01,  3.1D-01, -1.4D-16, r^2= 1.3D+00
   Bfn.  Coefficient  Atom+Function         Bfn.  Coefficient  Atom+Function  
  ----- ------------  ---------------      ----- ------------  ---------------
    17      1.437861  3 H  s                  7     -0.605324  1 O  py         
    10     -0.468171  1 O  py                13     -0.465016  2 H  s          
     4     -0.418398  1 O  py                12     -0.406045  2 H  s          
     2     -0.193890  1 O  s          

 Vector   10  Occ=0.000000D+00  E= 8.978572D-01  Symmetry=a'
              MO Center= -4.8D-01, -5.7D-01, -4.6D-16, r^2= 1.3D+00
   Bfn.  Coefficient  Atom+Function         Bfn.  Coefficient  Atom+Function  
  ----- ------------  ---------------      ----- ------------  ---------------
    12      1.325093  2 H  s                 13     -1.169587  2 H  s          
    17      0.587352  3 H  s                  3      0.331017  1 O  px         
    10     -0.306492  1 O  py                15     -0.264620  2 H  py         
     6      0.191518  1 O  px                 1      0.176928  1 O  s          
     4      0.159110  1 O  py         

 Vector   11  Occ=0.000000D+00  E= 1.312379D+00  Symmetry=a'
              MO Center=  1.4D-01,  7.2D-02,  3.6D-15, r^2= 1.7D+00
   Bfn.  Coefficient  Atom+Function         Bfn.  Coefficient  Atom+Function  
  ----- ------------  ---------------      ----- ------------  ---------------
     7      1.543024  1 O  py                12      1.047588  2 H  s          
     6      0.989627  1 O  px                 2     -0.740056  1 O  s          
     4     -0.578923  1 O  py                10     -0.383728  1 O  py         
    15      0.366473  2 H  py                 3     -0.362374  1 O  px         
    14      0.266011  2 H  px                 9     -0.258002  1 O  px         

 Vector   12  Occ=0.000000D+00  E= 1.411429D+00  Symmetry=a"
              MO Center=  2.5D-02, -6.3D-02,  3.3D-16, r^2= 1.5D+00
   Bfn.  Coefficient  Atom+Function         Bfn.  Coefficient  Atom+Function  
  ----- ------------  ---------------      ----- ------------  ---------------
     8      1.209465  1 O  pz                 5     -0.983468  1 O  pz         
    11     -0.479331  1 O  pz         

 Vector   13  Occ=0.000000D+00  E= 1.412146D+00  Symmetry=a'
              MO Center= -7.6D-02, -2.7D-01,  1.1D-15, r^2= 1.3D+00
   Bfn.  Coefficient  Atom+Function         Bfn.  Coefficient  Atom+Function  
  ----- ------------  ---------------      ----- ------------  ---------------
     6      0.972793  1 O  px                 3     -0.755733  1 O  px         
     7     -0.642409  1 O  py                 4      0.508701  1 O  py         
    17      0.391549  3 H  s                  9     -0.356319  1 O  px         
    14      0.313465  2 H  px                15     -0.227576  2 H  py         
     2     -0.224926  1 O  s                 10      0.151017  1 O  py         

 Vector   14  Occ=0.000000D+00  E= 1.584352D+00  Symmetry=a"
              MO Center= -4.0D-01, -6.5D-01, -5.7D-16, r^2= 8.3D-01
   Bfn.  Coefficient  Atom+Function         Bfn.  Coefficient  Atom+Function  
  ----- ------------  ---------------      ----- ------------  ---------------
    16      1.083528  2 H  pz                 8     -0.638186  1 O  pz         


 center of mass
 --------------
 x =  -0.00025996 y =  -0.01759754 z =   0.00000000

 moments of inertia (a.u.)
 ------------------
           4.387364879543           0.082314485576           0.000000000000
           0.082314485576           1.983873048865           0.000000000000
           0.000000000000           0.000000000000           6.371237928407

  Mulliken analysis of the total density
  --------------------------------------

    Atom       Charge   Shell Charges
 -----------   ------   -------------------------------------------------------
    1 O    6     6.47   0.86  0.86  2.77  1.84  0.14
    2 H    1     0.81   0.71  0.01  0.10
    3 H    1     0.72   0.72

       Multipole analysis of the density wrt the origin
       ------------------------------------------------

     L   x y z        total         open         nuclear
     -   - - -        -----         ----         -------
     0   0 0 0      0.000000      0.000000      8.000000

     1   1 0 0     -0.931611      0.000000     -1.164990
     1   0 1 0      0.027598      0.000000     -0.105738
     1   0 0 1      0.000000      0.000000      0.000000

     2   2 0 0     -4.709280      0.000000      1.832068
     2   1 1 0      0.026221      0.000000     -0.057055
     2   1 0 1      0.000000      0.000000      0.000000
     2   0 2 0     -3.070816      0.000000      4.354420
     2   0 1 1      0.000000      0.000000      0.000000
     2   0 0 2     -5.631217      0.000000      0.000000


 Parallel integral file used       1 records with       0 large values

[...]

 1 a.u. = 2.541766 Debyes 

          -----------------
          Quadrupole Moment
          -----------------

 Center of charge (in au) is the expansion point
         X =      -0.1445779 Y =      -0.0105631 Z =       0.0000000

 < R**2 > =  19.707686 a.u.  ( 1 a.u. = 0.280023 10**(-16) cm**2 ) 
 ( also called diamagnetic susceptibility ) 

   Second moments in atomic units

   Component  Electronic+nuclear     Point charges             Total
  --------------------------------------------------------------------------
      XX           -4.9793424619          0.0000000000         -4.9793424619
      YY           -3.0729091499          0.0000000000         -3.0729091499
      ZZ           -5.6326565446          0.0000000000         -5.6326565446
      XY            0.0222232272          0.0000000000          0.0222232272
      XZ            0.0000000000          0.0000000000          0.0000000000
      YZ            0.0000000000          0.0000000000          0.0000000000

   Second moments in buckingham(s)

   Component  Electronic+nuclear     Point charges             Total
  --------------------------------------------------------------------------
      XX           -6.6967724497          0.0000000000         -6.6967724497
      YY           -4.1327893178          0.0000000000         -4.1327893178
      ZZ           -7.5754217460          0.0000000000         -7.5754217460
      XY            0.0298882627          0.0000000000          0.0298882627
      XZ            0.0000000000          0.0000000000          0.0000000000
      YZ            0.0000000000          0.0000000000          0.0000000000

   Quadrupole moments in atomic units

   Component  Electronic+nuclear     Point charges             Total
  --------------------------------------------------------------------------
      XX           -0.6265596146          0.0000000000         -0.6265596146
      YY            2.2330903533          0.0000000000          2.2330903533
      ZZ           -1.6065307386          0.0000000000         -1.6065307386
      XY            0.0333348408          0.0000000000          0.0333348408
      XZ            0.0000000000          0.0000000000          0.0000000000
      YZ            0.0000000000          0.0000000000          0.0000000000

   Quadrupole moments in buckingham(s)

   Component  Electronic+nuclear     Point charges             Total
  --------------------------------------------------------------------------
      XX           -0.8426669179          0.0000000000         -0.8426669179
      YY            3.0033077801          0.0000000000          3.0033077801
      ZZ           -2.1606408622          0.0000000000         -2.1606408622
      XY            0.0448323940          0.0000000000          0.0448323940
      XZ            0.0000000000          0.0000000000          0.0000000000
      YZ            0.0000000000          0.0000000000          0.0000000000

 1 a.u. = 1.344911 Buckinghams = 1.344911 10**(-26) esu*cm**2 

          ---------------
          Octupole Moment
          ---------------

 Center of charge (in au) is the expansion point
         X =      -0.1445779 Y =      -0.0105631 Z =       0.0000000

   Third moments in atomic units

   Component  Electronic+nuclear     Point charges             Total
  --------------------------------------------------------------------------
      XXX          -2.8431506363          0.0000000000         -2.8431506363
      YYY          -0.2411273187          0.0000000000         -0.2411273187
      ZZZ           0.0000000000          0.0000000000          0.0000000000
      XXY          -0.1416563542          0.0000000000         -0.1416563542
      XXZ           0.0000000000          0.0000000000          0.0000000000
      YYX          -2.0305366997          0.0000000000         -2.0305366997
      YYZ           0.0000000000          0.0000000000          0.0000000000
      ZZX          -0.8855140238          0.0000000000         -0.8855140238
      ZZY          -0.0085452614          0.0000000000         -0.0085452614
      XYZ           0.0000000000          0.0000000000          0.0000000000

   Third moments in 10**(-34) esu*cm**3

   Component  Electronic+nuclear     Point charges             Total
  --------------------------------------------------------------------------
      XXX          -2.0234361900          0.0000000000         -2.0234361900
      YYY          -0.1716074192          0.0000000000         -0.1716074192
      ZZZ           0.0000000000          0.0000000000          0.0000000000
      XXY          -0.1008151274          0.0000000000         -0.1008151274
      XXZ           0.0000000000          0.0000000000          0.0000000000
      YYX          -1.4451086027          0.0000000000         -1.4451086027
      YYZ           0.0000000000          0.0000000000          0.0000000000
      ZZX          -0.6302097046          0.0000000000         -0.6302097046
      ZZY          -0.0060815600          0.0000000000         -0.0060815600
      XYZ           0.0000000000          0.0000000000          0.0000000000

   Octupole moments in atomic units

   Component  Electronic+nuclear     Point charges             Total
  --------------------------------------------------------------------------
      XXX           1.5309254489          0.0000000000          1.5309254489
      YYY          -0.0158248953          0.0000000000         -0.0158248953
      ZZZ           0.0000000000          0.0000000000          0.0000000000
      XXY          -0.1584764184          0.0000000000         -0.1584764184
      XXZ           0.0000000000          0.0000000000          0.0000000000
      YYX          -2.1967410693          0.0000000000         -2.1967410693
      YYZ           0.0000000000          0.0000000000          0.0000000000
      ZZX           0.6658156204          0.0000000000          0.6658156204
      ZZY           0.1743013137          0.0000000000          0.1743013137
      XYZ           0.0000000000          0.0000000000          0.0000000000

   Octupole moments in 10**(-34) esu*cm**3

   Component  Electronic+nuclear     Point charges             Total
  --------------------------------------------------------------------------
      XXX           1.0895412709          0.0000000000          1.0895412709
      YYY          -0.0112623881          0.0000000000         -0.0112623881
      ZZZ           0.0000000000          0.0000000000          0.0000000000
      XXY          -0.1127857653          0.0000000000         -0.1127857653
      XXZ           0.0000000000          0.0000000000          0.0000000000
      YYX          -1.5633942581          0.0000000000         -1.5633942581
      YYZ           0.0000000000          0.0000000000          0.0000000000
      ZZX           0.4738529872          0.0000000000          0.4738529872
      ZZY           0.1240481534          0.0000000000          0.1240481534
      XYZ           0.0000000000          0.0000000000          0.0000000000

 1 a.u. = 0.711688 10**(-34) esu*cm**3 


          ----------------------------
          Mulliken population analysis
          ----------------------------

 Total      S,P,D,... shell population
 --------------------------------
    Atom          S        P
 --------------------------------------------------------------------------------------
     1 O      1.72163   4.74613
     2 H      0.71608   0.09446
     3 H      0.72169   0.00000

          ----- Total      gross population on atoms ----

              1  O    8.0     6.46776
              2  H    1.0     0.81055
              3  H    1.0     0.72169

          ----- Bond indices -----
  1- 1   0.00000  1- 2   0.99629  1- 3   0.92457
  2- 1   0.99629  2- 2   0.00000  2- 3  -0.00202
  3- 1   0.92457  3- 2  -0.00202  3- 3   0.00000

 Large bond indices
 ------------------
  1   O -  2   H    0.99629
  1   O -  3   H    0.92457

                                                                Free electrons             Valency
                              Number of         Sum of          + Bond indices         - Bond indices    
                Valency     Free electrons    Bond indices     =Mulliken charge     = Net spin population
     1  O       1.92086        4.54690          1.92086           6.46776                 0.00000
     2  H       0.99427       -0.18372          0.99427           0.81055                 0.00000
     3  H       0.92254       -0.20085          0.92254           0.72169                 0.00000

          ---------------------------------------------
          Electrostatic potential/diamagnetic shielding
          ---------------------------------------------

 1 a.u. = 9.07618 esu/cm ( or statvolts ) 
   Point      X         Y         Z     Total Potential(a.u.)   Diamagnetic shielding(a.u.)
    1 O    0.11923  -0.01690   0.00000      -6.742552             7.845493
    2 H   -0.92995  -1.46659   0.00000      -0.974960             4.666792
    3 H   -0.94204   1.48349   0.00000      -0.922820             4.526579

          --------------
          Electric field
          --------------

 1 a.u. = 0.171524 10**(-8) dyn/esu 

   Atom       X         Y         Z                        Electric field (a.u.)
                                              X              Y              Z           Field
  ------------------------------------------------------------------------------------------------
    1 O    0.11923  -0.01690   0.00000       0.503169      -0.013219       0.000000       0.503343
    2 H   -0.92995  -1.46659   0.00000      -0.013050      -0.027337       0.000000       0.030292
    3 H   -0.94204   1.48349   0.00000      -0.054073       0.101268       0.000000       0.114800

          -----------------------
          Electric field gradient
          -----------------------

 1 a.u. = 0.324123 10**(16) esu/cm**3  ( or statvolts/cm**2 ) = 0.97174 10**(22) v/m**2 


 ------------------------------------------------------------
   Atom      X         Y         Z
 ------------------------------------------------------------
    1 O    0.11923  -0.01690   0.00000
 ------------------------------------------------------------

 Electric field gradient in molecular frame (a.u.)
         XX             YY             ZZ             XY             XZ             YZ
 ------------------------------------------------------------------------------------------
       -0.092578      -1.791803       1.884381       0.083553       0.000000       0.000000

 Principal components (a.u.) and orientation 
 of principal axis w.r.t. absolute frame                      Asymmetry parameter eta
 --------------------------------------------------------------------------------------
        1.884381      -1.795902      -0.088479                       0.906092

        0.000000      -0.048994       0.998799
        0.000000       0.998799       0.048994
        1.000000       0.000000       0.000000
  

 ------------------------------------------------------------
   Atom      X         Y         Z
 ------------------------------------------------------------
    2 H   -0.92995  -1.46659   0.00000
 ------------------------------------------------------------

 Electric field gradient in molecular frame (a.u.)
         XX             YY             ZZ             XY             XZ             YZ
 ------------------------------------------------------------------------------------------
       -0.003075      -0.316920       0.319996      -0.376873       0.000000       0.000000

 Principal components (a.u.) and orientation 
 of principal axis w.r.t. absolute frame                      Asymmetry parameter eta
 --------------------------------------------------------------------------------------
       -0.568235       0.319996       0.248240                       0.126278

        0.554802       0.000000       0.831983
        0.831983       0.000000      -0.554802
        0.000000       1.000000       0.000000
  

 ------------------------------------------------------------
   Atom      X         Y         Z
 ------------------------------------------------------------
    3 H   -0.94204   1.48349   0.00000
 ------------------------------------------------------------

 Electric field gradient in molecular frame (a.u.)
         XX             YY             ZZ             XY             XZ             YZ
 ------------------------------------------------------------------------------------------
        0.004835      -0.282372       0.277538       0.332376       0.000000       0.000000

 Principal components (a.u.) and orientation 
 of principal axis w.r.t. absolute frame                      Asymmetry parameter eta
 --------------------------------------------------------------------------------------
       -0.500841       0.277538       0.223303                       0.108288

       -0.549265       0.000000       0.835648
        0.835648       0.000000       0.549265
        0.000000       1.000000       0.000000
  

          ---------------------
          Electron/spin density
          ---------------------

 1 a.u. = 4.80286 10**(-10) esu 

 Total electron density 
 ---------------------- 
   Point      X         Y         Z      Density (a.u.)
    1 O    0.11923  -0.01690   0.00000       0.270615
    2 H   -0.92995  -1.46659   0.00000       0.371728
    3 H   -0.94204   1.48349   0.00000       0.299939

          -----------------------------------------
          Chemical Shielding Tensors (GIAO, in ppm)
          -----------------------------------------

                                NWChem CPHF Module
                                ------------------


  scftype          =     RHF 
  nclosed          =        4
  nopen            =        0
  variables        =       52
  # of vectors     =        3
  tolerance        = 0.10D-03
  level shift      = 0.00D+00
  max iterations   =       50
  max subspace     =       30

 SCF residual:   7.223543208149548E-008


Iterative solution of linear equations
  No. of variables       52
  No. of equations        3
  Maximum subspace       30
        Iterations       50
       Convergence  1.0D-04
        Start time      1.6


   iter   nsub   residual    time
   ----  ------  --------  ---------
     1      3    3.63D-01       1.7
     2      6    6.23D-02       1.7
     3      9    7.60D-03       1.7
     4     12    8.99D-04       1.8
     5     15    5.73D-05       1.8
      Atom:    1  O 
        Diamagnetic
    104.2246      0.7362      0.0000
      0.7362    124.3987      0.0000
      0.0000      0.0000     90.2690

        Paramagnetic
    -63.0632    -13.9850      0.0000
    -13.9850    -44.4186      0.0000
      0.0000      0.0000    -54.1131

        Total Shielding Tensor
     41.1614    -13.2488      0.0000
    -13.2488     79.9801      0.0000
      0.0000      0.0000     36.1559

           isotropic =      52.4325
          anisotropy =      47.4575

          Principal Components and Axis System
                 1           2           3
               84.0708     37.0707     36.1559

      1        -0.2950      0.9555      0.0000
      2         0.9555      0.2950      0.0000
      3         0.0000      0.0000      1.0000



      Atom:    2  H 
        Diamagnetic
     30.4819      6.8700      0.0000
      6.8700     40.6676      0.0000
      0.0000      0.0000     25.0139

        Paramagnetic
     -0.8409      0.5998      0.0000
      0.5998     -0.3414      0.0000
      0.0000      0.0000     -0.8491

        Total Shielding Tensor
     29.6410      7.4698      0.0000
      7.4698     40.3262      0.0000
      0.0000      0.0000     24.1648

           isotropic =      31.3774
          anisotropy =      19.1850

          Principal Components and Axis System
                 1           2           3
               44.1674     25.7999     24.1648

      1         0.4573      0.8893      0.0000
      2         0.8893     -0.4573      0.0000
      3         0.0000      0.0000      1.0000



      Atom:    3  H 
        Diamagnetic
     28.3300     -7.4643      0.0000
     -7.4643     37.1234      0.0000
      0.0000      0.0000     22.7781

        Paramagnetic
      2.6075      1.5920      0.0000
      1.5920      1.9957      0.0000
      0.0000      0.0000      3.7966

        Total Shielding Tensor
     30.9375     -5.8723      0.0000
     -5.8723     39.1191      0.0000
      0.0000      0.0000     26.5747

           isotropic =      32.2104
          anisotropy =      14.9619

          Principal Components and Axis System
                 1           2           3
               42.1850     27.8716     26.5747

      1        -0.4628      0.8865      0.0000
      2         0.8865      0.4628      0.0000
      3         0.0000      0.0000      1.0000




 Task  times  cpu:        0.3s     wall:        0.3s
 Summary of allocated global arrays
-----------------------------------
  No active global arrays



                         GA Statistics for process    0
                         ------------------------------

       create   destroy   get      put      acc     scatter   gather  read&inc
calls: 2680     2680     1.37e+05 1.65e+04 7.39e+04  335        0        0     
number of processes/call 1.00e+00 1.00e+00 1.00e+00 1.00e+00 0.00e+00
bytes total:             2.26e+07 5.72e+06 1.49e+07 6.72e+05 0.00e+00 0.00e+00
bytes remote:            0.00e+00 0.00e+00 0.00e+00 0.00e+00 0.00e+00 0.00e+00
Max memory consumed for GA by this process: 193896 bytes
MA_summarize_allocated_blocks: starting scan ...
MA_summarize_allocated_blocks: scan completed: 0 heap blocks, 0 stack blocks
MA usage statistics:

	allocation statistics:
					      heap	     stack
					      ----	     -----
	current number of blocks	         0	         0
	maximum number of blocks	        47	        36
	current total bytes		         0	         0
	maximum total bytes		   1074712	  65110824
	maximum total K-bytes		      1075	     65111
	maximum total M-bytes		         2	        66


                                NWChem Input Module
                                -------------------





                                     CITATION
                                     --------
                Please cite the following reference when publishing
                           results obtained with NWChem:

                 M. Valiev, E.J. Bylaska, N. Govind, K. Kowalski,
              T.P. Straatsma, H.J.J. van Dam, D. Wang, J. Nieplocha,
                        E. Apra, T.L. Windus, W.A. de Jong
                 "NWChem: a comprehensive and scalable open-source
                  solution for large scale molecular simulations"
                      Comput. Phys. Commun. 181, 1477 (2010)
                           doi:10.1016/j.cpc.2010.04.018

                              AUTHORS & CONTRIBUTORS
                              ----------------------
      E. J. Bylaska, W. A. de Jong, N. Govind, K. Kowalski, T. P. Straatsma,
     M. Valiev, H. J. J. van Dam, D. Wang, E. Apra, T. L. Windus, J. Hammond,
    J. Autschbach, F. Aquino, J. Mullin, P. Nichols, S. Hirata, M. T. Hackler,
   Y. Zhao, P.-D. Fan, R. J. Harrison, M. Dupuis, D. M. A. Smith, K. Glaesemann,
    J. Nieplocha, V. Tipparaju, M. Krishnan, A. Vazquez-Mayagoitia, L. Jensen,
      M. Swart, Q. Wu, T. Van Voorhis, A. A. Auer, M. Nooijen, L. D. Crosby,
        E. Brown, G. Cisneros, G. I. Fann, H. Fruchtl, J. Garza, K. Hirao,
        R. Kendall, J. A. Nichols, K. Tsemekhman, K. Wolinski, J. Anchell,
       D. Bernholdt, P. Borowski, T. Clark, D. Clerc, H. Dachsel, M. Deegan,
        K. Dyall, D. Elwood, E. Glendening, M. Gutowski, A. Hess, J. Jaffe,
        B. Johnson, J. Ju, R. Kobayashi, R. Kutteh, Z. Lin, R. Littlefield,
    X. Long, B. Meng, T. Nakajima, S. Niu, L. Pollack, M. Rosing, G. Sandrone,
       M. Stave, H. Taylor, G. Thomas, J. H. van Lenthe, A. Wong, Z. Zhang.

 Total times  cpu:        1.5s     wall:        1.8s
