 argument  1 = prop_h2o.nw



============================== echo of input deck ==============================
echo
start prop_h2o_run
title h2o

geometry
 o     0.00000000     0.00000000    -0.10514653
 h    -0.74829209     0.00000000    -0.68465287
 h     0.74829209     0.00000000    -0.68465287
end

basis
 * library cc-pvdz
end
charge 0

task scf freq
================================================================================


                                         
                                         


              Northwest Computational Chemistry Package (NWChem) 6.1
              ------------------------------------------------------


                    Environmental Molecular Sciences Laboratory
                       Pacific Northwest National Laboratory
                                Richland, WA 99352

                              Copyright (c) 1994-2010
                       Pacific Northwest National Laboratory
                            Battelle Memorial Institute

             NWChem is an open-source computational chemistry package
                        distributed under the terms of the
                      Educational Community License (ECL) 2.0
             A copy of the license is included with this distribution
                              in the LICENSE.TXT file

                                  ACKNOWLEDGMENT
                                  --------------

            This software and its documentation were developed at the
            EMSL at Pacific Northwest National Laboratory, a multiprogram
            national laboratory, operated for the U.S. Department of Energy
            by Battelle under Contract Number DE-AC05-76RL01830. Support
            for this work was provided by the Department of Energy Office
            of Biological and Environmental Research, Office of Basic
            Energy Sciences, and the Office of Advanced Scientific Computing.


           Job information
           ---------------

    hostname      = fryslan
    program       = ../../../nwchem-6.1/bin/LINUX64/nwchem.test
    date          = Mon Apr  1 14:02:21 2013

    compiled      = Fri_Mar_29_11:40:34_2013
    source        = /home/bert/nwchem-6.1
    nwchem branch = 6.1
    input         = prop_h2o.nw
    prefix        = prop_h2o_run.
    data base     = ./prop_h2o_run.db
    status        = startup
    nproc         =        1
    time left     =     -1s



           Memory information
           ------------------

    heap     =   13107201 doubles =    100.0 Mbytes
    stack    =   13107201 doubles =    100.0 Mbytes
    global   =   26214400 doubles =    200.0 Mbytes (distinct from heap & stack)
    total    =   52428802 doubles =    400.0 Mbytes
    verify   = yes
    hardfail = no 


           Directory information
           ---------------------

  0 permanent = .
  0 scratch   = .




                                NWChem Input Module
                                -------------------


                                        h2o
                                        ---

 Scaling coordinates for geometry "geometry" by  1.889725989
 (inverse scale =  0.529177249)

 C2V symmetry detected

          ------
          auto-z
          ------


                             Geometry "geometry" -> ""
                             -------------------------

 Output coordinates in angstroms (scale by  1.889725989 to convert to a.u.)

  No.       Tag          Charge          X              Y              Z
 ---- ---------------- ---------- -------------- -------------- --------------
    1 o                    8.0000     0.00000000     0.00000000     0.11590127
    2 h                    1.0000    -0.74829209     0.00000000    -0.46360507
    3 h                    1.0000     0.74829209     0.00000000    -0.46360507

      Atomic Mass 
      ----------- 

      o                 15.994910
      h                  1.007825


 Effective nuclear repulsion energy (a.u.)       9.2994731043

            Nuclear Dipole moment (a.u.) 
            ----------------------------
        X                 Y               Z
 ---------------- ---------------- ----------------
     0.0000000000     0.0000000000     0.0000000000

      Symmetry information
      --------------------

 Group name             C2v       
 Group number             16
 Group order               4
 No. of unique centers     2

      Symmetry unique atoms

     1    2



                                Z-matrix (autoz)
                                -------- 

 Units are Angstrom for bonds and degrees for angles

      Type          Name      I     J     K     L     M      Value
      ----------- --------  ----- ----- ----- ----- ----- ----------
    1 Stretch                  1     2                       0.94645
    2 Stretch                  1     3                       0.94645
    3 Bend                     2     1     3               104.48883


            XYZ format geometry
            -------------------
     3
 geometry
 o                     0.00000000     0.00000000     0.11590127
 h                    -0.74829209     0.00000000    -0.46360507
 h                     0.74829209     0.00000000    -0.46360507

 ==============================================================================
                                internuclear distances
 ------------------------------------------------------------------------------
       center one      |      center two      | atomic units |  angstroms
 ------------------------------------------------------------------------------
    2 h                |   1 o                |     1.78853  |     0.94645
    3 h                |   1 o                |     1.78853  |     0.94645
 ------------------------------------------------------------------------------
                         number of included internuclear distances:          2
 ==============================================================================



 ==============================================================================
                                 internuclear angles
 ------------------------------------------------------------------------------
        center 1       |       center 2       |       center 3       |  degrees
 ------------------------------------------------------------------------------
    2 h                |   1 o                |   3 h                |   104.49
 ------------------------------------------------------------------------------
                            number of included internuclear angles:          1
 ==============================================================================





 Summary of "aoBasis" -> "" (cartesian)
 ------------------------------------------------------------------------------
       Tag                 Description            Shells   Functions and Types
 ---------------- ------------------------------  ------  ---------------------
 *                          cc-pvdz                   on all atoms 




                   NWChem Nuclear Hessian and Frequency Analysis
                   ---------------------------------------------



                              NWChem Analytic Hessian
                              -----------------------

                      Basis "aoBasis" -> "aoBasis" (cartesian)
                      -----
  o (Oxygen)
  ----------
            Exponent  Coefficients 
       -------------- ---------------------------------------------------------
  1 S  1.17200000E+04  0.000710
  1 S  1.75900000E+03  0.005470
  1 S  4.00800000E+02  0.027837
  1 S  1.13700000E+02  0.104800
  1 S  3.70300000E+01  0.283062
  1 S  1.32700000E+01  0.448719
  1 S  5.02500000E+00  0.270952
  1 S  1.01300000E+00  0.015458

  2 S  1.17200000E+04 -0.000160
  2 S  1.75900000E+03 -0.001263
  2 S  4.00800000E+02 -0.006267
  2 S  1.13700000E+02 -0.025716
  2 S  3.70300000E+01 -0.070924
  2 S  1.32700000E+01 -0.165411
  2 S  5.02500000E+00 -0.116955
  2 S  1.01300000E+00  0.557368

  3 S  3.02300000E-01  1.000000

  4 P  1.77000000E+01  0.043018
  4 P  3.85400000E+00  0.228913
  4 P  1.04600000E+00  0.508728

  5 P  2.75300000E-01  1.000000

  6 D  1.18500000E+00  1.000000

  h (Hydrogen)
  ------------
            Exponent  Coefficients 
       -------------- ---------------------------------------------------------
  1 S  1.30100000E+01  0.019685
  1 S  1.96200000E+00  0.137977
  1 S  4.44600000E-01  0.478148

  2 S  1.22000000E-01  1.000000

  3 P  7.27000000E-01  1.000000



 Summary of "aoBasis" -> "aoBasis" (cartesian)
 ------------------------------------------------------------------------------
       Tag                 Description            Shells   Functions and Types
 ---------------- ------------------------------  ------  ---------------------
 o                          cc-pvdz                  6       15   3s2p1d
 h                          cc-pvdz                  3        5   2s1p


                                 NWChem SCF Module
                                 -----------------


                                        h2o



  aoBasis        = "aoBasis"
  functions       =    25
  atoms           =     3
  closed shells   =     5
  open shells     =     0
  charge          =   0.00
  wavefunction    = RHF 
  input vectors   = atomic
  output vectors  = ./prop_h2o_run.movecs
  use symmetry    = F
  symmetry adapt  = F


 Summary of "aoBasis" -> "aoBasis" (cartesian)
 ------------------------------------------------------------------------------
       Tag                 Description            Shells   Functions and Types
 ---------------- ------------------------------  ------  ---------------------
 o                          cc-pvdz                  6       15   3s2p1d
 h                          cc-pvdz                  3        5   2s1p



 Forming initial guess at       0.0s


      Superposition of Atomic Density Guess
      -------------------------------------

 Sum of atomic energies:         -75.76222910

      Non-variational initial energy
      ------------------------------

 Total energy =     -75.947400
 1-e energy   =    -121.940892
 2-e energy   =      36.694019
 HOMO         =      -0.472974
 LUMO         =       0.093184


 Starting SCF solution at       0.1s



 ----------------------------------------------
         Quadratically convergent ROHF

 Convergence threshold     :          1.000E-06
 Maximum no. of iterations :           30
 Final Fock-matrix accuracy:          1.000E-08
 ----------------------------------------------


              iter       energy          gnorm     gmax       time
             ----- ------------------- --------- --------- --------
                 1      -75.9928196517  8.38D-01  3.69D-01      0.2
                 2      -76.0251513502  1.78D-01  7.82D-02      0.3
                 3      -76.0273736652  1.44D-02  6.28D-03      0.5
                 4      -76.0273891240  3.55D-05  1.77D-05      0.8
                 5      -76.0273891241  1.78D-08  7.61D-09      1.2


       Final RHF  results 
       ------------------ 

         Total SCF energy =    -76.027389124136
      One-electron energy =   -123.331512895461
      Two-electron energy =     38.004650667009
 Nuclear repulsion energy =      9.299473104316

        Time for solution =      1.2s


             Final eigenvalues
             -----------------

              1      
    1  -20.5499
    2   -1.3425
    3   -0.7054
    4   -0.5689
    5   -0.4943
    6    0.1852
    7    0.2577
    8    0.7969
    9    0.8647
   10    1.1581
   11    1.2000
   12    1.2525
   13    1.4224
   14    1.4791
   15    1.6766

                       ROHF Final Molecular Orbital Analysis
                       -------------------------------------

 Vector    2  Occ=2.000000D+00  E=-1.342547D+00
              MO Center=  3.0D-16, -2.2D-18, -5.8D-02, r^2= 5.0D-01
   Bfn.  Coefficient  Atom+Function         Bfn.  Coefficient  Atom+Function  
  ----- ------------  ---------------      ----- ------------  ---------------
     2      0.439790  1 O  s                  3      0.361502  1 O  s          
    16      0.198157  2 H  s                 21      0.198157  3 H  s          

 Vector    3  Occ=2.000000D+00  E=-7.053883D-01
              MO Center=  1.1D-15,  5.0D-17, -1.1D-01, r^2= 7.6D-01
   Bfn.  Coefficient  Atom+Function         Bfn.  Coefficient  Atom+Function  
  ----- ------------  ---------------      ----- ------------  ---------------
     4      0.491629  1 O  px                16     -0.330163  2 H  s          
    21      0.330163  3 H  s                  7      0.218594  1 O  px         

 Vector    4  Occ=2.000000D+00  E=-5.689300D-01
              MO Center=  3.9D-16, -7.8D-17,  1.7D-01, r^2= 6.7D-01
   Bfn.  Coefficient  Atom+Function         Bfn.  Coefficient  Atom+Function  
  ----- ------------  ---------------      ----- ------------  ---------------
     6      0.547062  1 O  pz                 3      0.368374  1 O  s          
     9      0.362882  1 O  pz                16     -0.206383  2 H  s          
    21     -0.206383  3 H  s                  2      0.154345  1 O  s          

 Vector    5  Occ=2.000000D+00  E=-4.943157D-01
              MO Center= -8.2D-17, -7.7D-18,  9.2D-02, r^2= 6.0D-01
   Bfn.  Coefficient  Atom+Function         Bfn.  Coefficient  Atom+Function  
  ----- ------------  ---------------      ----- ------------  ---------------
     5      0.630923  1 O  py                 8      0.495016  1 O  py         

 Vector    6  Occ=0.000000D+00  E= 1.851749D-01
              MO Center=  1.0D-13,  4.6D-17, -6.2D-01, r^2= 3.0D+00
   Bfn.  Coefficient  Atom+Function         Bfn.  Coefficient  Atom+Function  
  ----- ------------  ---------------      ----- ------------  ---------------
     3      1.077598  1 O  s                 17     -0.842429  2 H  s          
    22     -0.842429  3 H  s                  9     -0.336186  1 O  pz         
     6     -0.185071  1 O  pz         

 Vector    7  Occ=0.000000D+00  E= 2.576734D-01
              MO Center= -9.5D-14, -2.4D-17, -6.2D-01, r^2= 3.6D+00
   Bfn.  Coefficient  Atom+Function         Bfn.  Coefficient  Atom+Function  
  ----- ------------  ---------------      ----- ------------  ---------------
    17      1.465297  2 H  s                 22     -1.465297  3 H  s          
     7      0.671198  1 O  px                 4      0.280043  1 O  px         

 Vector    8  Occ=0.000000D+00  E= 7.969296D-01
              MO Center= -6.2D-15, -8.7D-17, -2.4D-01, r^2= 1.6D+00
   Bfn.  Coefficient  Atom+Function         Bfn.  Coefficient  Atom+Function  
  ----- ------------  ---------------      ----- ------------  ---------------
    16      0.946045  2 H  s                 21     -0.946045  3 H  s          
    17     -0.668951  2 H  s                 22      0.668951  3 H  s          
     7      0.482242  1 O  px                 4      0.264068  1 O  px         
    12      0.195133  1 O  dxz               20     -0.156070  2 H  pz         
    25      0.156070  3 H  pz         

 Vector    9  Occ=0.000000D+00  E= 8.647231D-01
              MO Center=  4.8D-15,  1.8D-17, -4.6D-01, r^2= 1.6D+00
   Bfn.  Coefficient  Atom+Function         Bfn.  Coefficient  Atom+Function  
  ----- ------------  ---------------      ----- ------------  ---------------
    16      0.776277  2 H  s                 21      0.776277  3 H  s          
    17     -0.539863  2 H  s                 22     -0.539863  3 H  s          
     6      0.331076  1 O  pz                 3      0.315904  1 O  s          
    18     -0.305801  2 H  px                23      0.305801  3 H  px         
     2     -0.252529  1 O  s          

 Vector   10  Occ=0.000000D+00  E= 1.158114D+00
              MO Center= -2.7D-15, -2.5D-17,  2.0D-01, r^2= 1.2D+00
   Bfn.  Coefficient  Atom+Function         Bfn.  Coefficient  Atom+Function  
  ----- ------------  ---------------      ----- ------------  ---------------
     9      1.282010  1 O  pz                 6     -0.745071  1 O  pz         
     3     -0.591362  1 O  s                 16      0.556623  2 H  s          
    21      0.556623  3 H  s                 20      0.237058  2 H  pz         
    25      0.237058  3 H  pz         

 Vector   11  Occ=0.000000D+00  E= 1.200031D+00
              MO Center= -1.8D-16,  2.5D-18,  1.2D-01, r^2= 1.1D+00
   Bfn.  Coefficient  Atom+Function         Bfn.  Coefficient  Atom+Function  
  ----- ------------  ---------------      ----- ------------  ---------------
     8      1.034487  1 O  py                 5     -0.967375  1 O  py         

 Vector   12  Occ=0.000000D+00  E= 1.252480D+00
              MO Center= -4.8D-15,  3.0D-17,  1.2D-01, r^2= 1.7D+00
   Bfn.  Coefficient  Atom+Function         Bfn.  Coefficient  Atom+Function  
  ----- ------------  ---------------      ----- ------------  ---------------
     7      1.775940  1 O  px                17      0.843594  2 H  s          
    22     -0.843594  3 H  s                  4     -0.729703  1 O  px         
    16      0.385339  2 H  s                 21     -0.385339  3 H  s          
    18      0.300102  2 H  px                23      0.300102  3 H  px         
    20      0.192606  2 H  pz                25     -0.192606  3 H  pz         

 Vector   13  Occ=0.000000D+00  E= 1.422447D+00
              MO Center=  3.7D-15,  2.8D-17, -8.4D-02, r^2= 1.4D+00
   Bfn.  Coefficient  Atom+Function         Bfn.  Coefficient  Atom+Function  
  ----- ------------  ---------------      ----- ------------  ---------------
     3      1.065827  1 O  s                  2     -0.629520  1 O  s          
     9      0.547381  1 O  pz                20     -0.526034  2 H  pz         
    25     -0.526034  3 H  pz                18      0.300025  2 H  px         
    23     -0.300025  3 H  px                 1     -0.282373  1 O  s          
    17     -0.278108  2 H  s                 22     -0.278108  3 H  s          

 Vector   14  Occ=0.000000D+00  E= 1.479090D+00
              MO Center= -2.6D-14, -6.2D-17, -4.2D-01, r^2= 1.0D+00
   Bfn.  Coefficient  Atom+Function         Bfn.  Coefficient  Atom+Function  
  ----- ------------  ---------------      ----- ------------  ---------------
    19      0.686695  2 H  py                24     -0.686695  3 H  py         
    11     -0.224536  1 O  dxy        

 Vector   15  Occ=0.000000D+00  E= 1.676575D+00
              MO Center=  2.5D-14,  2.8D-17, -2.9D-01, r^2= 1.2D+00
   Bfn.  Coefficient  Atom+Function         Bfn.  Coefficient  Atom+Function  
  ----- ------------  ---------------      ----- ------------  ---------------
    19      0.769320  2 H  py                24      0.769320  3 H  py         
     8     -0.626350  1 O  py                14     -0.276901  1 O  dyz        


 center of mass
 --------------
 x =   0.00000000 y =   0.00000000 z =   0.09646272

 moments of inertia (a.u.)
 ------------------
           2.146761321767           0.000000000000           0.000000000000
           0.000000000000           6.177225849794           0.000000000000
           0.000000000000           0.000000000000           4.030464528027

  Mulliken analysis of the total density
  --------------------------------------

    Atom       Charge   Shell Charges
 -----------   ------   -------------------------------------------------------
    1 O    8     8.29   2.00  0.83  0.81  2.83  1.80  0.02
    2 H    1     0.86   0.70  0.07  0.09
    3 H    1     0.86   0.70  0.07  0.09

       Multipole analysis of the density wrt the origin
       ------------------------------------------------

     L   x y z        total         open         nuclear
     -   - - -        -----         ----         -------
     0   0 0 0      0.000000      0.000000     10.000000

     1   1 0 0      0.000000      0.000000      0.000000
     1   0 1 0      0.000000      0.000000      0.000000
     1   0 0 1     -0.805206      0.000000      0.000000

     2   2 0 0     -3.089074      0.000000      3.999171
     2   1 1 0      0.000000      0.000000      0.000000
     2   1 0 1      0.000000      0.000000      0.000000
     2   0 2 0     -5.210935      0.000000      0.000000
     2   0 1 1      0.000000      0.000000      0.000000
     2   0 0 2     -4.378503      0.000000      1.918819

  stpr_wrt_fd_from_sq: overwrite of existing file:./prop_h2o_run.hess
 stpr_wrt_fd_dipole: overwrite of existing file./prop_h2o_run.fd_ddipole

 HESSIAN: the one electron contributions are done in       0.0s


 HESSIAN: 2-el 1st deriv. term done in                     0.2s


 HESSIAN: 2-el 2nd deriv. term done in                     0.6s

  stpr_wrt_fd_from_sq: overwrite of existing file:./prop_h2o_run.hess
 stpr_wrt_fd_dipole: overwrite of existing file./prop_h2o_run.fd_ddipole

 HESSIAN: the two electron contributions are done in       0.9s

                                NWChem CPHF Module
                                ------------------


  scftype          =     RHF 
  nclosed          =        5
  nopen            =        0
  variables        =      100
  # of vectors     =        9
  tolerance        = 0.10D-03
  level shift      = 0.00D+00
  max iterations   =       50
  max subspace     =       90

 SCF residual:   1.775236440973548E-008


Iterative solution of linear equations
  No. of variables      100
  No. of equations        9
  Maximum subspace       90
        Iterations       50
       Convergence  1.0D-04
        Start time      2.4


   iter   nsub   residual    time
   ----  ------  --------  ---------
     1      9    1.59D-01       2.6
     2     18    7.25D-02       2.7
     3     27    1.63D-02       2.8
     4     36    2.50D-03       2.9
     5     45    4.31D-04       3.1
     6     54    4.65D-05       3.2
 HESSIAN: the CPHF contributions are done
  stpr_wrt_fd_from_sq: overwrite of existing file:./prop_h2o_run.hess
 stpr_wrt_fd_dipole: overwrite of existing file./prop_h2o_run.fd_ddipole
 HESSIAN: the Hessian is done


  Vibrational analysis via the FX method 

  See chapter 2 in "Molecular Vibrations" by Wilson, Decius and Cross

  Vib: Default input used 

  Nuclear Hessian passed symmetry test 



 ---------------------------- Atom information ----------------------------
     atom    #        X              Y              Z            mass
 --------------------------------------------------------------------------
    O        1  0.0000000D+00  0.0000000D+00  2.1902164D-01  1.5994910D+01
    H        2 -1.4140670D+00  0.0000000D+00 -8.7608655D-01  1.0078250D+00
    H        3  1.4140670D+00  0.0000000D+00 -8.7608655D-01  1.0078250D+00
 --------------------------------------------------------------------------




          ----------------------------------------------------
          MASS-WEIGHTED NUCLEAR HESSIAN (Hartree/Bohr/Bohr/Kamu)
          ----------------------------------------------------


              1           2           3           4           5           6           7           8           9
   ----- ----- ----- ----- -----
    1   4.89481D+01
    2  -5.58310D-14 9.09832D-04
    3   3.26540D-12 1.34807D-14 3.37381D+01
    4  -9.75000D+01-2.24485D-13-5.87400D+01 4.23018D+02
    5   1.62725D-13-1.81230D-03 1.41595D-14-3.71306D-13 8.36580D-03
    6  -7.55064D+01-1.75421D-13-6.72031D+01 2.67406D+02 5.83849D-13 2.50344D+02
    7  -9.75000D+01-7.77962D-14 5.87400D+01-3.45972D+01 7.09619D-13 3.33970D+01 4.23018D+02
    8   5.96951D-14-1.81230D-03-6.62483D-14-2.25037D-13-1.14595D-03-2.49122D-13-1.27773D-14 8.36580D-03
    9   7.55064D+01 1.21716D-13-6.72031D+01-3.33968D+01-3.34933D-13 1.73807D+01-2.67406D+02-1.49962D-13 2.50344D+02



          -------------------------------------------------
          NORMAL MODE EIGENVECTORS IN CARTESIAN COORDINATES
          -------------------------------------------------
                 (Frequencies expressed in cm-1)

                    1           2           3           4           5           6
 
 Frequency         -0.62        0.00        0.62       14.66       15.32       15.85
 
           1     0.16659     0.00000    -0.16637     0.00000     0.05024     0.00000
           2     0.00000     0.23563     0.00000    -0.08365     0.00000     0.00000
           3    -0.16641     0.00000    -0.16682     0.00000    -0.00064     0.00000
           4     0.16865     0.00000    -0.16675     0.00000    -0.39038     0.00000
           5     0.00000     0.23563     0.00000     0.66377     0.00000    -0.70436
           6    -0.16907     0.00000    -0.16633     0.00000     0.56831     0.00000
           7     0.16865     0.00000    -0.16675     0.00000    -0.39038     0.00000
           8     0.00000     0.23563     0.00000     0.66377     0.00000     0.70436
           9    -0.16375     0.00000    -0.16731     0.00000    -0.56958     0.00000

                    7           8           9
 
 Frequency       1775.05     4111.88     4208.69
 
           1     0.00000     0.00000    -0.06757
           2     0.00000     0.00000     0.00000
           3    -0.06744     0.04949     0.00000
           4    -0.41672    -0.56786     0.53617
           5     0.00000     0.00000     0.00000
           6     0.53514    -0.39271     0.41523
           7     0.41672     0.56786     0.53617
           8     0.00000     0.00000     0.00000
           9     0.53514    -0.39271    -0.41523



 ----------------------------------------------------------------------------
 Normal Eigenvalue ||         Derivative Dipole Moments (debye/angs)
  Mode   [cm**-1]  ||      [d/dqX]             [d/dqY]           [d/dqZ]
 ------ ---------- || ------------------ ------------------ -----------------
    1       -0.622 ||       0.007               0.000             0.000
    2       -0.004 ||       0.000               0.000             0.000
    3        0.618 ||       0.001               0.000             0.000
    4       14.657 ||       0.000               2.640             0.000
    5       15.318 ||       1.556               0.000             0.000
    6       15.854 ||       0.000               0.000             0.000
    7     1775.049 ||       0.000               0.000             1.369
    8     4111.879 ||       0.000               0.000            -0.706
    9     4208.686 ||       1.186               0.000             0.000
 ----------------------------------------------------------------------------



  
  
 ----------------------------------------------------------------------------
 Normal Eigenvalue ||                 Infra Red Intensities
  Mode   [cm**-1]  || [atomic units] [(debye/angs)**2] [(KM/mol)] [arbitrary]
 ------ ---------- || -------------- ----------------- ---------- -----------
    1       -0.622 ||    0.000002           0.000         0.002       0.000
    2       -0.004 ||    0.000000           0.000         0.000       0.000
    3        0.618 ||    0.000000           0.000         0.000       0.000
    4       14.657 ||    0.302015           6.968       294.420      47.625
    5       15.318 ||    0.104957           2.421       102.317      16.551
    6       15.854 ||    0.000000           0.000         0.000       0.000
    7     1775.049 ||    0.081213           1.874        79.171      12.807
    8     4111.879 ||    0.021581           0.498        21.038       3.403
    9     4208.686 ||    0.060973           1.407        59.439       9.615
 ----------------------------------------------------------------------------





        Vibrational analysis via the FX method 
  --- with translations and rotations projected out ---
  --- via the Eckart algorithm                      ---
 Projected Nuclear Hessian trans-rot subspace norm:1.9067D-32
                         (should be close to zero!) 


From the projected analysis 
The Zero-Point Energy (Kcal/mol) =          14.43673285

 center of mass
 --------------
 x =   0.00000000 y =   0.00000000 z =   0.09646272

 moments of inertia (a.u.)
 ------------------
           2.146761321767           0.000000000000           0.000000000000
           0.000000000000           6.177225849794           0.000000000000
           0.000000000000           0.000000000000           4.030464528027

 Rotational Constants
 --------------------
 A=  28.042324 cm-1  ( 40.345747 K)
 B=  14.936287 cm-1  ( 21.489505 K)
 C=   9.745503 cm-1  ( 14.021292 K)


 Temperature                      =   298.15K
 frequency scaling parameter      =   1.0000

 Zero-Point correction to Energy  =   14.426 kcal/mol  (  0.022989 au)
 Thermal correction to Energy     =   16.203 kcal/mol  (  0.025821 au)
 Thermal correction to Enthalpy   =   16.795 kcal/mol  (  0.026765 au)

 Total Entropy                    =   44.971 cal/mol-K
   - Translational                =   34.593 cal/mol-K (mol. weight =  18.0106)
   - Rotational                   =   10.374 cal/mol-K (symmetry #  =        2)
   - Vibrational                  =    0.004 cal/mol-K

 Cv (constant volume heat capacity) =    5.987 cal/mol-K
   - Translational                  =    2.979 cal/mol-K
   - Rotational                     =    2.979 cal/mol-K
   - Vibrational                    =    0.028 cal/mol-K



          -------------------------------------------------
          NORMAL MODE EIGENVECTORS IN CARTESIAN COORDINATES
          -------------------------------------------------
             (Projected Frequencies expressed in cm-1)

                    1           2           3           4           5           6
 
 P.Frequency        0.00        0.00        0.00        0.00        0.00        0.00
 
           1     0.04542    -0.01768     0.23575     0.00000     0.00000     0.00000
           2     0.00000     0.00000     0.00000     0.25004     0.00000     0.00000
           3    -0.08547    -0.21958     0.00000     0.00000     0.00000     0.00000
           4    -0.36519     0.14215     0.23468     0.00000     0.00000     0.00000
           5     0.00000     0.00000     0.00000     0.00000     0.99611     0.00000
           6     0.44472    -0.42596     0.00138     0.00000     0.00000     0.00000
           7    -0.36519     0.14215     0.23468     0.00000     0.00000     0.00000
           8     0.00000     0.00000     0.00000     0.00000     0.00000     0.99611
           9    -0.61567    -0.01321    -0.00138     0.00000     0.00000     0.00000

                    7           8           9
 
 P.Frequency     1775.05     4111.88     4208.69
 
           1     0.00000     0.00000    -0.06757
           2     0.00000     0.00000     0.00000
           3    -0.06744     0.04949     0.00000
           4    -0.41672    -0.56786     0.53617
           5     0.00000     0.00000     0.00000
           6     0.53514    -0.39271     0.41523
           7     0.41672     0.56786     0.53617
           8     0.00000     0.00000     0.00000
           9     0.53514    -0.39271    -0.41523



 ----------------------------------------------------------------------------
 Normal Eigenvalue ||    Projected Derivative Dipole Moments (debye/angs)
  Mode   [cm**-1]  ||      [d/dqX]             [d/dqY]           [d/dqZ]
 ------ ---------- || ------------------ ------------------ -----------------
    1        0.000 ||       1.450               0.000             0.000
    2        0.000 ||       0.564               0.000             0.000
    3        0.000 ||      -0.004               0.000             0.000
    4        0.000 ||       0.000              -0.883             0.000
    5        0.000 ||       0.000               1.759             0.000
    6        0.000 ||       0.000               1.759             0.000
    7     1775.050 ||       0.000               0.000             1.369
    8     4111.879 ||       0.000               0.000            -0.706
    9     4208.688 ||       1.186               0.000             0.000
 ----------------------------------------------------------------------------



  
  
 ----------------------------------------------------------------------------
 Normal Eigenvalue ||           Projected Infra Red Intensities
  Mode   [cm**-1]  || [atomic units] [(debye/angs)**2] [(KM/mol)] [arbitrary]
 ------ ---------- || -------------- ----------------- ---------- -----------
    1        0.000 ||    0.091148           2.103        88.856      14.373
    2        0.000 ||    0.013810           0.319        13.463       2.178
    3        0.000 ||    0.000001           0.000         0.001       0.000
    4        0.000 ||    0.033800           0.780        32.950       5.330
    5        0.000 ||    0.134108           3.094       130.735      21.147
    6        0.000 ||    0.134108           3.094       130.735      21.147
    7     1775.050 ||    0.081213           1.874        79.171      12.807
    8     4111.879 ||    0.021581           0.498        21.038       3.403
    9     4208.688 ||    0.060973           1.407        59.440       9.615
 ----------------------------------------------------------------------------



 vib:animation  F

 Task  times  cpu:        3.1s     wall:        3.2s
 Summary of allocated global arrays
-----------------------------------
  No active global arrays



                         GA Statistics for process    0
                         ------------------------------

       create   destroy   get      put      acc     scatter   gather  read&inc
calls:  783      783     6.59e+04 1.29e+04 4.62e+04  244        0        0     
number of processes/call 1.00e+00 1.00e+00 1.00e+00 1.00e+00 0.00e+00
bytes total:             3.22e+07 4.97e+06 2.70e+07 1.07e+06 0.00e+00 0.00e+00
bytes remote:            0.00e+00 0.00e+00 0.00e+00 0.00e+00 0.00e+00 0.00e+00
Max memory consumed for GA by this process: 397800 bytes
MA_summarize_allocated_blocks: starting scan ...
MA_summarize_allocated_blocks: scan completed: 0 heap blocks, 0 stack blocks
MA usage statistics:

	allocation statistics:
					      heap	     stack
					      ----	     -----
	current number of blocks	         0	         0
	maximum number of blocks	        25	        36
	current total bytes		         0	         0
	maximum total bytes		     80096	  67580728
	maximum total K-bytes		        81	     67581
	maximum total M-bytes		         1	        68


                                NWChem Input Module
                                -------------------





                                     CITATION
                                     --------
                Please cite the following reference when publishing
                           results obtained with NWChem:

                 M. Valiev, E.J. Bylaska, N. Govind, K. Kowalski,
              T.P. Straatsma, H.J.J. van Dam, D. Wang, J. Nieplocha,
                        E. Apra, T.L. Windus, W.A. de Jong
                 "NWChem: a comprehensive and scalable open-source
                  solution for large scale molecular simulations"
                      Comput. Phys. Commun. 181, 1477 (2010)
                           doi:10.1016/j.cpc.2010.04.018

                              AUTHORS & CONTRIBUTORS
                              ----------------------
      E. J. Bylaska, W. A. de Jong, N. Govind, K. Kowalski, T. P. Straatsma,
     M. Valiev, H. J. J. van Dam, D. Wang, E. Apra, T. L. Windus, J. Hammond,
    J. Autschbach, F. Aquino, J. Mullin, P. Nichols, S. Hirata, M. T. Hackler,
   Y. Zhao, P.-D. Fan, R. J. Harrison, M. Dupuis, D. M. A. Smith, K. Glaesemann,
    J. Nieplocha, V. Tipparaju, M. Krishnan, A. Vazquez-Mayagoitia, L. Jensen,
      M. Swart, Q. Wu, T. Van Voorhis, A. A. Auer, M. Nooijen, L. D. Crosby,
        E. Brown, G. Cisneros, G. I. Fann, H. Fruchtl, J. Garza, K. Hirao,
        R. Kendall, J. A. Nichols, K. Tsemekhman, K. Wolinski, J. Anchell,
       D. Bernholdt, P. Borowski, T. Clark, D. Clerc, H. Dachsel, M. Deegan,
        K. Dyall, D. Elwood, E. Glendening, M. Gutowski, A. Hess, J. Jaffe,
        B. Johnson, J. Ju, R. Kobayashi, R. Kutteh, Z. Lin, R. Littlefield,
    X. Long, B. Meng, T. Nakajima, S. Niu, L. Pollack, M. Rosing, G. Sandrone,
       M. Stave, H. Taylor, G. Thomas, J. H. van Lenthe, A. Wong, Z. Zhang.

 Total times  cpu:        3.2s     wall:        3.2s
