 argument  1 = input.nw
                                         
                                         


              Northwest Computational Chemistry Package (NWChem) 6.1
              ------------------------------------------------------


                    Environmental Molecular Sciences Laboratory
                       Pacific Northwest National Laboratory
                                Richland, WA 99352

                              Copyright (c) 1994-2010
                       Pacific Northwest National Laboratory
                            Battelle Memorial Institute

             NWChem is an open-source computational chemistry package
                        distributed under the terms of the
                      Educational Community License (ECL) 2.0
             A copy of the license is included with this distribution
                              in the LICENSE.TXT file

                                  ACKNOWLEDGMENT
                                  --------------

            This software and its documentation were developed at the
            EMSL at Pacific Northwest National Laboratory, a multiprogram
            national laboratory, operated for the U.S. Department of Energy
            by Battelle under Contract Number DE-AC05-76RL01830. Support
            for this work was provided by the Department of Energy Office
            of Biological and Environmental Research, Office of Basic
            Energy Sciences, and the Office of Advanced Scientific Computing.


           Job information
           ---------------

    hostname      = fryslan
    program       = ./nwchem.test
    date          = Thu Jan 17 12:26:36 2013

    compiled      = Wed_Jan_16_14:11:53_2013
    source        = /home/bert/nwchem-6.1
    nwchem branch = 6.1
    input         = input.nw
    prefix        = nmrrun.
    data base     = ./nmrrun.db
    status        = startup
    nproc         =        1
    time left     =     -1s



           Memory information
           ------------------

    heap     =   13107201 doubles =    100.0 Mbytes
    stack    =  196608001 doubles =   1500.0 Mbytes
    global   =  196608000 doubles =   1500.0 Mbytes (distinct from heap & stack)
    total    =  406323202 doubles =   3100.0 Mbytes
    verify   = yes
    hardfail = no 


           Directory information
           ---------------------

  0 permanent = .
  0 scratch   = .




                                NWChem Input Module
                                -------------------



 Scaling coordinates for geometry "geometry" by  1.889725989
 (inverse scale =  0.529177249)

 C1  symmetry detected

          ------
          auto-z
          ------
      warning. autoz generated   11 bonds for atom    1
  autoz: The atoms group into disjoint clusters
 cluster   1:    1    2    3    4    5    6    7    8    9   10   11
                12   13   14   15
 cluster   2:   16   24   25   26   27
 cluster   3:   17   28   29   30   31
 cluster   4:   18   32   33   34   35
 cluster   5:   19   36   37   38   39
 cluster   6:   20   40   41   42   43
 cluster   7:   21   44   45   46   47
 cluster   8:   22   48   49   50   51
 cluster   9:   23   52   53   54   55
 Connecting clusters   1   2 via atoms    7   27 r = 1.79
 Connecting clusters   1   3 via atoms   11   29 r = 1.79
 Connecting clusters   1   4 via atoms    8   34 r = 1.87
 Connecting clusters   1   5 via atoms   10   37 r = 1.87
 Connecting clusters   1   6 via atoms    2   43 r = 1.89
 Connecting clusters   1   7 via atoms   11   47 r = 1.94
 Connecting clusters   1   8 via atoms    3   49 r = 1.89
 Connecting clusters   1   9 via atoms    7   53 r = 1.94
 Clusters   2   4 closest atoms are   27   34 r = 4.33 ... close but too far?
 Connecting clusters   2   6 via atoms   25   42 r = 2.85
 Clusters   2   7 closest atoms are   24   46 r = 4.52 ... close but too far?
 Clusters   2   9 closest atoms are   27   53 r = 3.28 ... close but too far?
 Clusters   3   5 closest atoms are   29   37 r = 4.32 ... close but too far?
 Clusters   3   7 closest atoms are   29   47 r = 3.28 ... close but too far?
 Connecting clusters   3   8 via atoms   31   48 r = 2.83
 Clusters   3   9 closest atoms are   30   52 r = 4.53 ... close but too far?
 Clusters   4   5 closest atoms are   34   38 r = 3.17 ... close but too far?
 Connecting clusters   4   6 via atoms   33   41 r = 2.48
 Clusters   4   7 closest atoms are   32   47 r = 4.08 ... close but too far?
 Connecting clusters   5   8 via atoms   36   51 r = 2.49
 Clusters   5   9 closest atoms are   38   53 r = 4.10 ... close but too far?
 Connecting clusters   6   7 via atoms   40   45 r = 2.12
 Connecting clusters   8   9 via atoms   50   55 r = 2.13
  autoz: regenerating connections with new bonds
      warning. autoz generated   11 bonds for atom    1


                             Geometry "geometry" -> ""
                             -------------------------

 Output coordinates in angstroms (scale by  1.889725989 to convert to a.u.)

  No.       Tag          Charge          X              Y              Z
 ---- ---------------- ---------- -------------- -------------- --------------
    1 U                   92.0000    -0.00037132     0.00005221     0.06683217
    2 O1                   8.0000     0.00343417     1.79335067     0.08332903
    3 O1                   8.0000    -0.00333956    -1.79405606     0.08228282
    4 O                    8.0000    -0.00225449    -0.00111015     4.19850461
    5 O                    8.0000     1.12877623    -0.07342002     2.25589559
    6 O                    8.0000    -1.13046183     0.07117090     2.25497672
    7 O                    8.0000     2.43565425    -0.00759486    -0.05439051
    8 O                    8.0000     1.36537197     0.19060763    -1.97768290
    9 O                    8.0000     3.57885049     0.36998642    -1.97592941
   10 O                    8.0000    -1.36276707    -0.18916421    -1.97985514
   11 O                    8.0000    -2.43525991     0.00808145    -0.05730520
   12 O                    8.0000    -3.57711483    -0.36925256    -1.98028918
   13 C                    6.0000    -0.00135562    -0.00139490     2.98404419
   14 C                    6.0000     2.50188466     0.20318999    -1.36543982
   15 C                    6.0000    -2.50078488    -0.20211611    -1.36777858
   16 N                    7.0000     2.98665978     2.38143200     1.41146130
   17 N                    7.0000    -2.98728564    -2.38213784     1.40705245
   18 N                    7.0000    -0.20801044     2.18103656    -3.27996992
   19 N                    7.0000     0.21220240    -2.17901721    -3.28108462
   20 N                    7.0000    -0.25876022     4.73765300    -0.13550401
   21 N                    7.0000    -2.78445548     2.54494000     1.34292055
   22 N                    7.0000     0.25940462    -4.73704104    -0.13814825
   23 N                    7.0000     2.78334484    -2.54574288     1.34410649
   24 H                    1.0000     2.42226551     2.05217643     2.22860513
   25 H                    1.0000     2.51158426     3.19671932     0.96464338
   26 H                    1.0000     3.95379572     2.62573716     1.68742341
   27 H                    1.0000     2.94097214     1.50925482     0.75036934
   28 H                    1.0000    -3.95830894    -2.62454151     1.67371779
   29 H                    1.0000    -2.93672102    -1.51131801     0.74636422
   30 H                    1.0000    -2.43098361    -2.05820411     2.23126565
   31 H                    1.0000    -2.51366876    -3.20389925     0.96875839
   32 H                    1.0000    -0.98200067     1.51575059    -2.98647050
   33 H                    1.0000    -0.30020681     3.10676377    -2.79535781
   34 H                    1.0000     0.65062658     1.64474458    -2.91646700
   35 H                    1.0000    -0.18034305     2.30579873    -4.30943151
   36 H                    1.0000     0.32408733    -3.10043640    -2.79235932
   37 H                    1.0000    -0.64469209    -1.64450306    -2.90916549
   38 H                    1.0000     0.98814533    -1.50866383    -3.00442786
   39 H                    1.0000     0.16806157    -2.31210594    -4.30795405
   40 H                    1.0000    -1.16242234     5.05368989     0.34238685
   41 H                    1.0000    -0.28859219     4.98544680    -1.16912013
   42 H                    1.0000     0.58600895     5.19104000     0.32242120
   43 H                    1.0000    -0.16096462     3.66888390    -0.04937124
   44 H                    1.0000    -3.68313356     2.73547692     1.82375363
   45 H                    1.0000    -2.40447508     3.43561981     0.93417930
   46 H                    1.0000    -2.09239792     2.08945359     2.00157657
   47 H                    1.0000    -2.88635987     1.76912959     0.61021755
   48 H                    1.0000    -0.62425332    -5.18470095     0.24917238
   49 H                    1.0000     0.16221507    -3.66765797    -0.05651238
   50 H                    1.0000     1.11670128    -5.06091145     0.41191827
   51 H                    1.0000     0.37629974    -4.98400686    -1.16518815
   52 H                    1.0000     2.09518725    -2.07988700     2.00073093
   53 H                    1.0000     2.89377524    -1.76999947     0.61177836
   54 H                    1.0000     3.67842020    -2.74712837     1.82531814
   55 H                    1.0000     2.38826007    -3.42725060     0.93158097

      Atomic Mass 
      ----------- 

      U                238.050800
      O1                15.994910
      O                 15.994910
      C                 12.000000
      N                 14.003070
      H                  1.007825


 Effective nuclear repulsion energy (a.u.)    5366.4702196552

            Nuclear Dipole moment (a.u.) 
            ----------------------------
        X                 Y               Z
 ---------------- ---------------- ----------------
     0.0000000000     0.0000000000     0.0000000000



                                Z-matrix (autoz)
                                -------- 

 Units are Angstrom for bonds and degrees for angles

      Type          Name      I     J     K     L     M      Value
      ----------- --------  ----- ----- ----- ----- ----- ----------
    1 Stretch                  1     2                       1.79338
    2 Stretch                  1     3                       1.79418
    3 Stretch                  1     5                       2.46422
    4 Stretch                  1     6                       2.46376
    5 Stretch                  1     7                       2.43905
    6 Stretch                  1     8                       2.46609
    7 Stretch                  1    10                       2.46594
    8 Stretch                  1    11                       2.43806
    9 Stretch                  1    13                       2.91721
   10 Stretch                  1    14                       2.89032
   11 Stretch                  1    15                       2.88982
   12 Stretch                  2    43                       1.88740
   13 Stretch                  3    49                       1.88602
   14 Stretch                  4    13                       1.21446
   15 Stretch                  5    13                       1.34632
   16 Stretch                  6    13                       1.34599
   17 Stretch                  7    27                       1.78992
   18 Stretch                  7    53                       1.93900
   19 Stretch                  7    14                       1.32954
   20 Stretch                  8    34                       1.87262
   21 Stretch                  8    14                       1.29099
   22 Stretch                  9    14                       1.24915
   23 Stretch                 10    37                       1.87010
   24 Stretch                 10    15                       1.29224
   25 Stretch                 11    29                       1.79051
   26 Stretch                 11    47                       1.93659
   27 Stretch                 11    15                       1.32884
   28 Stretch                 12    15                       1.24964
   29 Stretch                 16    24                       1.04627
   30 Stretch                 16    25                       1.04405
   31 Stretch                 16    26                       1.03498
   32 Stretch                 16    27                       1.09536
   33 Stretch                 17    28                       1.03574
   34 Stretch                 17    29                       1.09425
   35 Stretch                 17    30                       1.04582
   36 Stretch                 17    31                       1.04485
   37 Stretch                 18    32                       1.06198
   38 Stretch                 18    33                       1.04896
   39 Stretch                 18    34                       1.07564
   40 Stretch                 18    35                       1.03736
   41 Stretch                 19    36                       1.04899
   42 Stretch                 19    37                       1.07624
   43 Stretch                 19    38                       1.06207
   44 Stretch                 19    39                       1.03640
   45 Stretch                 20    40                       1.06998
   46 Stretch                 20    41                       1.06332
   47 Stretch                 20    42                       1.06249
   48 Stretch                 20    43                       1.07668
   49 Stretch                 21    44                       1.03688
   50 Stretch                 21    45                       1.05108
   51 Stretch                 21    46                       1.05841
   52 Stretch                 21    47                       1.07197
   53 Stretch                 22    48                       1.06361
   54 Stretch                 22    49                       1.07689
   55 Stretch                 22    50                       1.06884
   56 Stretch                 22    51                       1.06276
   57 Stretch                 23    52                       1.05912
   58 Stretch                 23    53                       1.07251
   59 Stretch                 23    54                       1.03599
   60 Stretch                 23    55                       1.05039
   61 Stretch                 25    42                       2.84563
   62 Stretch                 31    48                       2.83042
   63 Stretch                 33    41                       2.48480
   64 Stretch                 36    51                       2.48963
   65 Stretch                 40    45                       2.12393
   66 Stretch                 50    55                       2.13442
   67 Bend                     1     2    43               173.13916
   68 Bend                     1     3    49               173.02566
   69 Bend                     1     5    13                95.40640
   70 Bend                     1     6    13                95.43592
   71 Bend                     1     7    27               104.88975
   72 Bend                     1     7    53               102.81171
   73 Bend                     1     7    14                95.63930
   74 Bend                     1     8    34               105.32208
   75 Bend                     1     8    14                95.45837
   76 Bend                     1    10    37               105.07107
   77 Bend                     1    10    15                95.40483
   78 Bend                     1    11    29               104.71748
   79 Bend                     1    11    47               102.59609
   80 Bend                     1    11    15                95.67798
   81 Bend                     1    13     5                57.24152
   82 Bend                     1    13     6                57.22080
   83 Bend                     1    14     7                57.11741
   84 Bend                     1    14     8                58.14163
   85 Bend                     1    15    10                58.16014
   86 Bend                     1    15    11                57.09101
   87 Bend                     2    20    40               109.58060
   88 Bend                     2    20    41               107.80231
   89 Bend                     2    20    42               108.76739
   90 Bend                     2     1     5                91.18441
   91 Bend                     2     1     6                87.93341
   92 Bend                     2     1     7                90.08440
   93 Bend                     2     1     8                85.93916
   94 Bend                     2     1    10                94.90683
   95 Bend                     2     1    11                89.95957
   96 Bend                     2     1    13                89.50141
   97 Bend                     2     1    14                86.12628
   98 Bend                     2     1    15                94.37927
   99 Bend                     3    22    48               108.49918
  100 Bend                     3    22    50               109.50038
  101 Bend                     3    22    51               108.20807
  102 Bend                     3     1     5                87.89641
  103 Bend                     3     1     6                91.17222
  104 Bend                     3     1     7                89.93956
  105 Bend                     3     1     8                94.89459
  106 Bend                     3     1    10                85.95755
  107 Bend                     3     1    11                90.11914
  108 Bend                     3     1    13                89.47813
  109 Bend                     3     1    14                94.35748
  110 Bend                     3     1    15                86.15184
  111 Bend                     4    13     5               122.78418
  112 Bend                     4    13     6               122.75349
  113 Bend                     5     1     6                54.69535
  114 Bend                     5     1     7                65.56937
  115 Bend                     5     1     8               119.01365
  116 Bend                     5     1    10               171.18107
  117 Bend                     5     1    11               120.19535
  118 Bend                     5     1    13                27.35208
  119 Bend                     5     1    14                92.61410
  120 Bend                     5     1    15               146.65655
  121 Bend                     5    13     6               114.46232
  122 Bend                     6     1     7               120.15536
  123 Bend                     6     1     8               171.15132
  124 Bend                     6     1    10               119.07352
  125 Bend                     6     1    11                65.60899
  126 Bend                     6     1    13                27.34327
  127 Bend                     6     1    14               146.63416
  128 Bend                     6     1    15                92.63901
  129 Bend                     7    27    16               163.31495
  130 Bend                     7    53    23               150.19082
  131 Bend                     7     1     8                53.55265
  132 Bend                     7     1    10               120.68440
  133 Bend                     7     1    11               174.23262
  134 Bend                     7     1    13                92.86806
  135 Bend                     7     1    14                27.24330
  136 Bend                     7     1    15               147.06452
  137 Bend                     7    14     8               114.97665
  138 Bend                     7    14     9               123.09620
  139 Bend                     8    34    18               149.45822
  140 Bend                     8     1    10                67.90165
  141 Bend                     8     1    11               120.70519
  142 Bend                     8     1    13               146.02441
  143 Bend                     8     1    14                26.40000
  144 Bend                     8     1    15                94.18733
  145 Bend                     8    14     9               121.90561
  146 Bend                    10    37    19               149.76245
  147 Bend                    10     1    11                53.57479
  148 Bend                    10     1    13               146.07393
  149 Bend                    10     1    14                94.15238
  150 Bend                    10     1    15                26.43503
  151 Bend                    10    15    11               114.96708
  152 Bend                    10    15    12               121.85006
  153 Bend                    11    29    17               163.58931
  154 Bend                    11    47    21               150.64267
  155 Bend                    11     1    13                92.89932
  156 Bend                    11     1    14               147.05008
  157 Bend                    11     1    15                27.23101
  158 Bend                    11    15    12               123.16173
  159 Bend                    13     1    14               119.72699
  160 Bend                    13     1    15               119.74295
  161 Bend                    14     1    15               120.53006
  162 Bend                    14     7    27               107.15383
  163 Bend                    14     7    53               118.10683
  164 Bend                    14     8    34               124.48502
  165 Bend                    15    10    37               124.45268
  166 Bend                    15    11    29               107.13388
  167 Bend                    15    11    47               118.18260
  168 Bend                    16    25    42               162.13345
  169 Bend                    17    31    48               163.66619
  170 Bend                    18    33    41               165.74199
  171 Bend                    19    36    51               166.23916
  172 Bend                    20    40    45               113.16104
  173 Bend                    20    41    33               117.39541
  174 Bend                    20    42    25               109.64694
  175 Bend                    20     2     1               172.94509
  176 Bend                    21    45    40               164.86996
  177 Bend                    22    48    31               110.64830
  178 Bend                    22     3     1               172.95610
  179 Bend                    22    50    55               111.79010
  180 Bend                    22    51    36               116.96795
  181 Bend                    23    55    50               164.15846
  182 Bend                    24    16    25               109.54383
  183 Bend                    24    16    26               111.72259
  184 Bend                    24    16    27               101.43715
  185 Bend                    25    16    26               110.79260
  186 Bend                    25    16    27               110.15168
  187 Bend                    26    16    27               112.82080
  188 Bend                    27     7    53               123.30452
  189 Bend                    28    17    29               112.64524
  190 Bend                    28    17    30               111.60943
  191 Bend                    28    17    31               110.41987
  192 Bend                    29    11    47               123.48476
  193 Bend                    29    17    30               101.81574
  194 Bend                    29    17    31               110.58990
  195 Bend                    30    17    31               109.45622
  196 Bend                    32    18    33               111.16903
  197 Bend                    32    18    34               100.13963
  198 Bend                    32    18    35               111.65675
  199 Bend                    33    18    34               110.73464
  200 Bend                    33    18    35               110.77374
  201 Bend                    34    18    35               111.96501
  202 Bend                    36    19    37               111.11053
  203 Bend                    36    19    38               110.80132
  204 Bend                    36    19    39               110.69306
  205 Bend                    37    19    38               100.26507
  206 Bend                    37    19    39               111.85514
  207 Bend                    38    19    39               111.73170
  208 Bend                    40    20    41               109.97625
  209 Bend                    40    20    42               110.66838
  210 Bend                    40    20    43               109.52245
  211 Bend                    41    20    42               109.98752
  212 Bend                    41    20    43               108.15783
  213 Bend                    42    20    43               108.47476
  214 Bend                    44    21    45               109.75179
  215 Bend                    44    21    46               110.92894
  216 Bend                    44    21    47               111.56540
  217 Bend                    45    21    46               111.73382
  218 Bend                    45    21    47               112.44803
  219 Bend                    46    21    47               100.14016
  220 Bend                    48    22    49               108.38296
  221 Bend                    48    22    50               110.57504
  222 Bend                    48    22    51               110.21180
  223 Bend                    49    22    50               109.52835
  224 Bend                    49    22    51               108.29723
  225 Bend                    50    22    51               109.79786
  226 Bend                    52    23    53                99.90901
  227 Bend                    52    23    54               111.03232
  228 Bend                    52    23    55               111.60627
  229 Bend                    53    23    54               111.64199
  230 Bend                    53    23    55               112.18298
  231 Bend                    54    23    55               110.13643
  232 Torsion                  1     2    20    40          72.43313
  233 Torsion                  1     2    20    41         -47.24020
  234 Torsion                  1     2    20    42        -166.46751
  235 Torsion                  1     3    22    48        -161.81494
  236 Torsion                  1     3    22    50          77.41352
  237 Torsion                  1     3    22    51         -42.23903
  238 Torsion                  1     5    13     4        -179.95207
  239 Torsion                  1     5    13     6           0.00691
  240 Torsion                  1     6    13     4         179.95208
  241 Torsion                  1     6    13     5          -0.00691
  242 Torsion                  1     7    27    16          31.34412
  243 Torsion                  1     7    53    23         -47.59142
  244 Torsion                  1     7    14     8          -6.00677
  245 Torsion                  1     7    14     9         175.65424
  246 Torsion                  1     8    34    18         -44.26563
  247 Torsion                  1     8    14     7           5.93884
  248 Torsion                  1     8    14     9        -175.70032
  249 Torsion                  1    10    37    19         -45.70297
  250 Torsion                  1    10    15    11           5.95482
  251 Torsion                  1    10    15    12        -175.66754
  252 Torsion                  1    11    29    17          32.32014
  253 Torsion                  1    11    47    21         -48.43691
  254 Torsion                  1    11    15    10          -6.02595
  255 Torsion                  1    11    15    12         175.62026
  256 Torsion                  1    14     7    27        -107.50022
  257 Torsion                  1    14     7    53         107.77960
  258 Torsion                  1    14     8    34         112.80996
  259 Torsion                  1    15    10    37         112.43569
  260 Torsion                  1    15    11    29        -107.32636
  261 Torsion                  1    15    11    47         107.57174
  262 Torsion                  2     1     5    13          86.62268
  263 Torsion                  2     1     6    13         -92.91332
  264 Torsion                  2     1     7    27          28.09886
  265 Torsion                  2     1     7    53         158.12509
  266 Torsion                  2     1     7    14         -81.34752
  267 Torsion                  2     1     8    34         -38.55141
  268 Torsion                  2     1     8    14          89.46682
  269 Torsion                  2     1    10    37         142.15302
  270 Torsion                  2     1    10    15         -89.96980
  271 Torsion                  2     1    11    29        -150.91075
  272 Torsion                  2     1    11    47         -20.88037
  273 Torsion                  2     1    11    15          99.68584
  274 Torsion                  1     2    13     4        -179.95599
  275 Torsion                  2     1    13     5         -93.54390
  276 Torsion                  2     1    13     6          86.46358
  277 Torsion                  2     1    14     7          97.74327
  278 Torsion                  2     1    14     8         -88.66913
  279 Torsion                  1     2    14     9        -179.65689
  280 Torsion                  2     1    15    10          92.21573
  281 Torsion                  2     1    15    11         -81.35217
  282 Torsion                  1     2    15    12         179.50127
  283 Torsion                  3     1     5    13         -92.93310
  284 Torsion                  3     1     6    13          86.59435
  285 Torsion                  3     1     7    27        -150.88060
  286 Torsion                  3     1     7    53         -20.85437
  287 Torsion                  3     1     7    14          99.67302
  288 Torsion                  3     1     8    34         142.03941
  289 Torsion                  3     1     8    14         -89.94236
  290 Torsion                  3     1    10    37         -38.39172
  291 Torsion                  3     1    10    15          89.48546
  292 Torsion                  3     1    11    29          28.07146
  293 Torsion                  3     1    11    47         158.10185
  294 Torsion                  3     1    11    15         -81.33195
  295 Torsion                  1     3    13     4         179.95595
  296 Torsion                  3     1    13     5          86.42896
  297 Torsion                  3     1    13     6         -93.56356
  298 Torsion                  3     1    14     7         -81.35548
  299 Torsion                  3     1    14     8          92.23212
  300 Torsion                  1     3    14     9         179.42307
  301 Torsion                  3     1    15    10         -88.65830
  302 Torsion                  3     1    15    11          97.77380
  303 Torsion                  1     3    15    12        -179.71519
  304 Torsion                  5     1     2    43        -158.96810
  305 Torsion                  5     1     3    49        -105.27475
  306 Torsion                  5     1     6    13           0.00421
  307 Torsion                  5     1     7    27         -63.16370
  308 Torsion                  5     1     7    53          66.86253
  309 Torsion                  5     1     7    14        -172.61008
  310 Torsion                  5     1     8    34        -127.65306
  311 Torsion                  5     1     8    14           0.36517
  312 Torsion                  5     1    10    37         -84.32194
  313 Torsion                  5     1    10    15          43.55523
  314 Torsion                  5     1    11    29         -59.56391
  315 Torsion                  5     1    11    47          70.46648
  316 Torsion                  5     1    11    15        -168.96732
  317 Torsion                  5     1    13     6        -179.99252
  318 Torsion                  5     1    14     7           6.73208
  319 Torsion                  5     1    14     8        -179.68032
  320 Torsion                  1     5    14     9         174.27383
  321 Torsion                  5     1    15    10        -168.91918
  322 Torsion                  5     1    15    11          17.51292
  323 Torsion                  1     5    15    12         167.23567
  324 Torsion                  5    13     1     6         179.99252
  325 Torsion                  5    13     1     7          -3.48438
  326 Torsion                  5    13     1     8         -11.57078
  327 Torsion                  5    13     1    10         168.38949
  328 Torsion                  5    13     1    11         176.52183
  329 Torsion                  5    13     1    14          -8.29158
  330 Torsion                  5    13     1    15         171.69651
  331 Torsion                  6     1     2    43        -104.36026
  332 Torsion                  6     1     3    49        -159.88143
  333 Torsion                  6     1     5    13          -0.00421
  334 Torsion                  6     1     7    27         -59.56000
  335 Torsion                  6     1     7    53          70.46623
  336 Torsion                  6     1     7    14        -169.00638
  337 Torsion                  6     1     8    34         -84.83833
  338 Torsion                  6     1     8    14          43.17990
  339 Torsion                  6     1    10    37        -127.48486
  340 Torsion                  6     1    10    15           0.39232
  341 Torsion                  6     1    11    29         -63.16162
  342 Torsion                  6     1    11    47          66.86877
  343 Torsion                  6     1    11    15        -172.56503
  344 Torsion                  6     1    14     7          17.44633
  345 Torsion                  6     1    14     8        -168.96607
  346 Torsion                  1     6    14     9         167.38365
  347 Torsion                  6     1    15    10        -179.65675
  348 Torsion                  6     1    15    11           6.77535
  349 Torsion                  1     6    15    12         174.22116
  350 Torsion                  6    13     1     7         176.52310
  351 Torsion                  6    13     1     8         168.43670
  352 Torsion                  6    13     1    10         -11.60303
  353 Torsion                  6    13     1    11          -3.47069
  354 Torsion                  6    13     1    14         171.71590
  355 Torsion                  6    13     1    15          -8.29602
  356 Torsion                  7    27    16    24          23.65091
  357 Torsion                  7    27    16    25         -92.31288
  358 Torsion                  7    27    16    26         143.30813
  359 Torsion                  7    53    23    52          -1.01777
  360 Torsion                  7    53    23    54        -118.48706
  361 Torsion                  7    53    23    55         117.33579
  362 Torsion                  7     1     2    43         135.46620
  363 Torsion                  7     1     3    49         -39.72051
  364 Torsion                  7     1     5    13         176.17728
  365 Torsion                  7     1     6    13          -4.01688
  366 Torsion                  7     1     8    34        -131.66224
  367 Torsion                  7     1     8    14          -3.64401
  368 Torsion                  7     1    10    37          49.13433
  369 Torsion                  7     1    10    15         177.01151
  370 Torsion                  7     1    11    29         118.64966
  371 Torsion                  7     1    11    47        -111.31996
  372 Torsion                  7     1    11    15           9.24625
  373 Torsion                  1     7    13     4        -179.93316
  374 Torsion                  7     1    14     8         173.58760
  375 Torsion                  7     1    15    10          -4.73029
  376 Torsion                  7     1    15    11        -178.29819
  377 Torsion                  1     7    15    12        -166.28785
  378 Torsion                  7    14     1     8        -173.58760
  379 Torsion                  7    14     1    10        -167.60830
  380 Torsion                  7    14     1    11        -178.32814
  381 Torsion                  7    14     1    13          10.53516
  382 Torsion                  7    14     1    15        -169.45283
  383 Torsion                  7    14     8    34         118.74879
  384 Torsion                  8    34    18    32          -4.82602
  385 Torsion                  8    34    18    33         112.55841
  386 Torsion                  8    34    18    35        -123.27480
  387 Torsion                  8     1     2    43          82.02763
  388 Torsion                  8     1     3    49          13.67064
  389 Torsion                  8     1     5    13         172.63576
  390 Torsion                  8     1     6    13         -46.73784
  391 Torsion                  8     1     7    27         112.98570
  392 Torsion                  8     1     7    53        -116.98807
  393 Torsion                  8     1     7    14           3.53932
  394 Torsion                  8     1    10    37          58.55878
  395 Torsion                  8     1    10    15        -173.56405
  396 Torsion                  8     1    11    29         123.83771
  397 Torsion                  8     1    11    47        -106.13191
  398 Torsion                  8     1    11    15          14.43430
  399 Torsion                  1     8    13     4        -179.83303
  400 Torsion                  8     1    15    10           5.97740
  401 Torsion                  8     1    15    11        -167.59050
  402 Torsion                  1     8    15    12        -174.11433
  403 Torsion                  8    14     1    10           5.97930
  404 Torsion                  8    14     1    11          -4.74054
  405 Torsion                  8    14     1    13        -175.87724
  406 Torsion                  8    14     1    15           4.13477
  407 Torsion                  8    14     7    27        -113.50698
  408 Torsion                  8    14     7    53         101.77283
  409 Torsion                  9    14     7    27          68.15402
  410 Torsion                  9    14     7    53         -76.56616
  411 Torsion                  9    14     8    34         -62.89036
  412 Torsion                 10    37    19    36         112.77245
  413 Torsion                 10    37    19    38          -4.40761
  414 Torsion                 10    37    19    39        -122.96636
  415 Torsion                 10     1     2    43          14.64819
  416 Torsion                 10     1     3    49          81.05371
  417 Torsion                 10     1     5    13         -47.11020
  418 Torsion                 10     1     6    13         172.62062
  419 Torsion                 10     1     7    27         123.85734
  420 Torsion                 10     1     7    53        -106.11643
  421 Torsion                 10     1     7    14          14.41096
  422 Torsion                 10     1     8    34          58.42006
  423 Torsion                 10     1     8    14        -173.56171
  424 Torsion                 10     1    11    29         112.95693
  425 Torsion                 10     1    11    47        -117.01268
  426 Torsion                 10     1    11    15           3.55352
  427 Torsion                  1    10    13     4         179.83311
  428 Torsion                  1    10    14     9        -174.16522
  429 Torsion                 10     1    15    11        -173.56790
  430 Torsion                 10    15     1    11         173.56790
  431 Torsion                 10    15     1    13        -175.85270
  432 Torsion                 10    15     1    14           4.13529
  433 Torsion                 10    15    11    29        -113.35231
  434 Torsion                 10    15    11    47         101.54579
  435 Torsion                 11    29    17    28         142.69315
  436 Torsion                 11    29    17    30          23.02645
  437 Torsion                 11    29    17    31         -93.21201
  438 Torsion                 11    47    21    44        -117.20929
  439 Torsion                 11    47    21    45         118.97899
  440 Torsion                 11    47    21    46           0.23454
  441 Torsion                 11     1     2    43         -38.76659
  442 Torsion                 11     1     3    49         134.51240
  443 Torsion                 11     1     5    13          -4.01987
  444 Torsion                 11     1     6    13         176.19359
  445 Torsion                 11     1     7    27         118.53216
  446 Torsion                 11     1     7    53        -111.44161
  447 Torsion                 11     1     7    14           9.08578
  448 Torsion                 11     1     8    34          48.98500
  449 Torsion                 11     1     8    14         177.00323
  450 Torsion                 11     1    10    37        -131.52978
  451 Torsion                 11     1    10    15          -3.65261
  452 Torsion                  1    11    13     4         179.93320
  453 Torsion                  1    11    14     9        -166.35480
  454 Torsion                 11    15     1    13          10.57940
  455 Torsion                 11    15     1    14        -169.43261
  456 Torsion                 11    15    10    37         118.39051
  457 Torsion                 12    15    10    37         -63.23186
  458 Torsion                 12    15    11    29          68.29390
  459 Torsion                 12    15    11    47         -76.80799
  460 Torsion                 13     1     2    43        -131.66636
  461 Torsion                 13     1     3    49        -132.58924
  462 Torsion                 13     1     7    27         -61.40615
  463 Torsion                 13     1     7    53          68.62008
  464 Torsion                 13     1     7    14        -170.85253
  465 Torsion                 13     1     8    34        -121.60387
  466 Torsion                 13     1     8    14           6.41435
  467 Torsion                 13     1    10    37        -121.41726
  468 Torsion                 13     1    10    15           6.45992
  469 Torsion                 13     1    11    29         -61.41204
  470 Torsion                 13     1    11    47          68.61835
  471 Torsion                 13     1    11    15        -170.81545
  472 Torsion                  1    13    14     9         172.90900
  473 Torsion                  1    13    15    12         172.83846
  474 Torsion                 13     5     1    14         172.79829
  475 Torsion                 13     5     1    15         -13.18678
  476 Torsion                 13     6     1    14         -13.14983
  477 Torsion                 13     6     1    15         172.79545
  478 Torsion                 14     1     2    43         108.49154
  479 Torsion                 14     1     3    49         -12.81183
  480 Torsion                 14     1     7    27         109.44638
  481 Torsion                 14     1     7    53        -120.52739
  482 Torsion                 14     1     8    34        -128.01823
  483 Torsion                 14     1    10    37          55.69339
  484 Torsion                 14     1    10    15        -176.42943
  485 Torsion                 14     1    11    29         126.28715
  486 Torsion                 14     1    11    47        -103.68246
  487 Torsion                 14     1    11    15          16.88374
  488 Torsion                  1    14    13     4        -179.91274
  489 Torsion                  1    14    15    12        -172.56637
  490 Torsion                 14     7    27    16         132.20848
  491 Torsion                 14     7    53    23        -151.22475
  492 Torsion                 14     7     1    15          16.85760
  493 Torsion                 14     8    34    18        -152.19549
  494 Torsion                 14     8     1    15        -176.42972
  495 Torsion                 15     1     2    43         -11.87028
  496 Torsion                 15     1     3    49         107.55198
  497 Torsion                 15     1     7    27         126.30398
  498 Torsion                 15     1     7    53        -103.66979
  499 Torsion                 15     1     8    34          55.55206
  500 Torsion                 15     1    10    37        -127.87718
  501 Torsion                 15     1    11    29         109.40341
  502 Torsion                 15     1    11    47        -120.56620
  503 Torsion                  1    15    13     4         179.91281
  504 Torsion                  1    15    14     9        -172.62293
  505 Torsion                 15    10    37    19        -153.34329
  506 Torsion                 15    11    29    17         133.15754
  507 Torsion                 15    11    47    21        -152.01323
  508 Torsion                 16    25    42    20         -68.26639
  509 Torsion                 16    27     7    53         -85.35002
  510 Torsion                 17    29    11    47         -84.04564
  511 Torsion                 17    31    48    22         -57.84297
  512 Torsion                 18    33    41    20         -20.36892
  513 Torsion                 19    36    51    22         -13.56740
  514 Torsion                 20    40    45    21          51.01586
  515 Torsion                 21    47    11    29          68.94608
  516 Torsion                 22    50    55    23          64.88136
  517 Torsion                 23    53     7    27          70.10008
  518 Torsion                 24    16    25    42          -7.56911
  519 Torsion                 25    42    20    40         129.37645
  520 Torsion                 25    42    20    41        -108.90523
  521 Torsion                 25    42    20    43           9.20375
  522 Torsion                 26    16    25    42        -131.27243
  523 Torsion                 27    16    25    42         103.18780
  524 Torsion                 28    17    31    48        -136.97666
  525 Torsion                 29    17    31    48          97.66165
  526 Torsion                 30    17    31    48         -13.72716
  527 Torsion                 31    48    22    49           4.15656
  528 Torsion                 31    48    22    50         124.22249
  529 Torsion                 31    48    22    51        -114.19544
  530 Torsion                 32    18    33    41          76.44696
  531 Torsion                 33    41    20    40        -115.13942
  532 Torsion                 33    41    20    42         122.73083
  533 Torsion                 33    41    20    43           4.42624
  534 Torsion                 34    18    33    41         -33.94619
  535 Torsion                 35    18    33    41        -158.79105
  536 Torsion                 36    51    22    48         117.20203
  537 Torsion                 36    51    22    49          -1.20258
  538 Torsion                 36    51    22    50        -120.75527
  539 Torsion                 37    19    36    51         -34.33308
  540 Torsion                 38    19    36    51          76.21601
  541 Torsion                 39    19    36    51        -159.25044
  542 Torsion                 40    45    21    44         133.73585
  543 Torsion                 40    45    21    46          10.25062
  544 Torsion                 40    45    21    47        -101.45044
  545 Torsion                  2    43    40    20        -178.97052
  546 Torsion                 41    20    40    45         110.14623
  547 Torsion                  2    43    41    20         179.63737
  548 Torsion                 42    20    40    45        -128.12882
  549 Torsion                  2    43    42    20         179.33411
  550 Torsion                 43     2     3    49         102.30148
  551 Torsion                 43    20    40    45          -8.58449
  552 Torsion                  3    49    48    22         179.90076
  553 Torsion                 48    22    50    55        -133.46109
  554 Torsion                 49    22    50    55         -14.08428
  555 Torsion                 50    55    23    52           1.42085
  556 Torsion                 50    55    23    53        -109.76373
  557 Torsion                 50    55    23    54         125.22597
  558 Torsion                  3    49    50    22        -179.67621
  559 Torsion                  3    49    51    22         179.77650
  560 Torsion                 51    22    50    55         104.71287


            XYZ format geometry
            -------------------
    55
 geometry
 U                    -0.00037132     0.00005221     0.06683217
 O1                    0.00343417     1.79335067     0.08332903
 O1                   -0.00333956    -1.79405606     0.08228282
 O                    -0.00225449    -0.00111015     4.19850461
 O                     1.12877623    -0.07342002     2.25589559
 O                    -1.13046183     0.07117090     2.25497672
 O                     2.43565425    -0.00759486    -0.05439051
 O                     1.36537197     0.19060763    -1.97768290
 O                     3.57885049     0.36998642    -1.97592941
 O                    -1.36276707    -0.18916421    -1.97985514
 O                    -2.43525991     0.00808145    -0.05730520
 O                    -3.57711483    -0.36925256    -1.98028918
 C                    -0.00135562    -0.00139490     2.98404419
 C                     2.50188466     0.20318999    -1.36543982
 C                    -2.50078488    -0.20211611    -1.36777858
 N                     2.98665978     2.38143200     1.41146130
 N                    -2.98728564    -2.38213784     1.40705245
 N                    -0.20801044     2.18103656    -3.27996992
 N                     0.21220240    -2.17901721    -3.28108462
 N                    -0.25876022     4.73765300    -0.13550401
 N                    -2.78445548     2.54494000     1.34292055
 N                     0.25940462    -4.73704104    -0.13814825
 N                     2.78334484    -2.54574288     1.34410649
 H                     2.42226551     2.05217643     2.22860513
 H                     2.51158426     3.19671932     0.96464338
 H                     3.95379572     2.62573716     1.68742341
 H                     2.94097214     1.50925482     0.75036934
 H                    -3.95830894    -2.62454151     1.67371779
 H                    -2.93672102    -1.51131801     0.74636422
 H                    -2.43098361    -2.05820411     2.23126565
 H                    -2.51366876    -3.20389925     0.96875839
 H                    -0.98200067     1.51575059    -2.98647050
 H                    -0.30020681     3.10676377    -2.79535781
 H                     0.65062658     1.64474458    -2.91646700
 H                    -0.18034305     2.30579873    -4.30943151
 H                     0.32408733    -3.10043640    -2.79235932
 H                    -0.64469209    -1.64450306    -2.90916549
 H                     0.98814533    -1.50866383    -3.00442786
 H                     0.16806157    -2.31210594    -4.30795405
 H                    -1.16242234     5.05368989     0.34238685
 H                    -0.28859219     4.98544680    -1.16912013
 H                     0.58600895     5.19104000     0.32242120
 H                    -0.16096462     3.66888390    -0.04937124
 H                    -3.68313356     2.73547692     1.82375363
 H                    -2.40447508     3.43561981     0.93417930
 H                    -2.09239792     2.08945359     2.00157657
 H                    -2.88635987     1.76912959     0.61021755
 H                    -0.62425332    -5.18470095     0.24917238
 H                     0.16221507    -3.66765797    -0.05651238
 H                     1.11670128    -5.06091145     0.41191827
 H                     0.37629974    -4.98400686    -1.16518815
 H                     2.09518725    -2.07988700     2.00073093
 H                     2.89377524    -1.76999947     0.61177836
 H                     3.67842020    -2.74712837     1.82531814
 H                     2.38826007    -3.42725060     0.93158097

 ==============================================================================
                                internuclear distances
 ------------------------------------------------------------------------------
       center one      |      center two      | atomic units |  angstroms
 ------------------------------------------------------------------------------
    2 O1               |   1 U                |     3.38899  |     1.79338
    3 O1               |   1 U                |     3.39050  |     1.79418
    5 O                |   1 U                |     4.65670  |     2.46422
    6 O                |   1 U                |     4.65584  |     2.46377
    7 O                |   1 U                |     4.60914  |     2.43905
    8 O                |   1 U                |     4.66024  |     2.46609
   10 O                |   1 U                |     4.65995  |     2.46594
   11 O                |   1 U                |     4.60727  |     2.43806
   13 C                |   1 U                |     5.51273  |     2.91721
   13 C                |   4 O                |     2.29500  |     1.21446
   13 C                |   5 O                |     2.54418  |     1.34632
   13 C                |   6 O                |     2.54355  |     1.34599
   14 C                |   1 U                |     5.46191  |     2.89032
   14 C                |   7 O                |     2.51246  |     1.32954
   14 C                |   8 O                |     2.43962  |     1.29099
   14 C                |   9 O                |     2.36055  |     1.24915
   15 C                |   1 U                |     5.46096  |     2.88982
   15 C                |  10 O                |     2.44198  |     1.29224
   15 C                |  11 O                |     2.51114  |     1.32884
   15 C                |  12 O                |     2.36147  |     1.24964
   24 H                |  16 N                |     1.97716  |     1.04627
   25 H                |  16 N                |     1.97296  |     1.04405
   26 H                |  16 N                |     1.95584  |     1.03498
   27 H                |  16 N                |     2.06994  |     1.09536
   28 H                |  17 N                |     1.95726  |     1.03574
   29 H                |  17 N                |     2.06784  |     1.09425
   30 H                |  17 N                |     1.97631  |     1.04582
   31 H                |  17 N                |     1.97448  |     1.04485
   32 H                |  18 N                |     2.00686  |     1.06198
   33 H                |  18 N                |     1.98225  |     1.04896
   34 H                |  18 N                |     2.03266  |     1.07564
   35 H                |  18 N                |     1.96033  |     1.03736
   36 H                |  19 N                |     1.98231  |     1.04899
   37 H                |  19 N                |     2.03380  |     1.07624
   38 H                |  19 N                |     2.00703  |     1.06207
   39 H                |  19 N                |     1.95851  |     1.03640
   40 H                |  20 N                |     2.02198  |     1.06998
   41 H                |  20 N                |     2.00939  |     1.06332
   42 H                |  20 N                |     2.00782  |     1.06249
   43 H                |  20 N                |     2.03464  |     1.07668
   44 H                |  21 N                |     1.95943  |     1.03688
   45 H                |  21 N                |     1.98625  |     1.05108
   46 H                |  21 N                |     2.00011  |     1.05841
   47 H                |  21 N                |     2.02573  |     1.07197
   48 H                |  22 N                |     2.00993  |     1.06361
   49 H                |  22 N                |     2.03503  |     1.07689
   50 H                |  22 N                |     2.01982  |     1.06884
   51 H                |  22 N                |     2.00833  |     1.06276
   52 H                |  23 N                |     2.00145  |     1.05912
   53 H                |  23 N                |     2.02675  |     1.07251
   54 H                |  23 N                |     1.95774  |     1.03599
   55 H                |  23 N                |     1.98495  |     1.05039
 ------------------------------------------------------------------------------
                         number of included internuclear distances:         52
 ==============================================================================



 ==============================================================================
                                 internuclear angles
 ------------------------------------------------------------------------------
        center 1       |       center 2       |       center 3       |  degrees
 ------------------------------------------------------------------------------
    2 O1               |   1 U                |   3 O1               |   178.98
    2 O1               |   1 U                |   5 O                |    91.18
    2 O1               |   1 U                |   6 O                |    87.93
    2 O1               |   1 U                |   7 O                |    90.08
    2 O1               |   1 U                |   8 O                |    85.94
    2 O1               |   1 U                |  10 O                |    94.91
    2 O1               |   1 U                |  11 O                |    89.96
    2 O1               |   1 U                |  13 C                |    89.50
    2 O1               |   1 U                |  14 C                |    86.13
    2 O1               |   1 U                |  15 C                |    94.38
    3 O1               |   1 U                |   5 O                |    87.90
    3 O1               |   1 U                |   6 O                |    91.17
    3 O1               |   1 U                |   7 O                |    89.94
    3 O1               |   1 U                |   8 O                |    94.89
    3 O1               |   1 U                |  10 O                |    85.96
    3 O1               |   1 U                |  11 O                |    90.12
    3 O1               |   1 U                |  13 C                |    89.48
    3 O1               |   1 U                |  14 C                |    94.36
    3 O1               |   1 U                |  15 C                |    86.15
    5 O                |   1 U                |   6 O                |    54.70
    5 O                |   1 U                |   7 O                |    65.57
    5 O                |   1 U                |   8 O                |   119.01
    5 O                |   1 U                |  10 O                |   171.18
    5 O                |   1 U                |  11 O                |   120.20
    1 U                |   5 O                |  13 C                |    95.41
    5 O                |   1 U                |  14 C                |    92.61
    5 O                |   1 U                |  15 C                |   146.66
    6 O                |   1 U                |   7 O                |   120.16
    6 O                |   1 U                |   8 O                |   171.15
    6 O                |   1 U                |  10 O                |   119.07
    6 O                |   1 U                |  11 O                |    65.61
    1 U                |   6 O                |  13 C                |    95.44
    6 O                |   1 U                |  14 C                |   146.63
    6 O                |   1 U                |  15 C                |    92.64
    7 O                |   1 U                |   8 O                |    53.55
    7 O                |   1 U                |  10 O                |   120.68
    7 O                |   1 U                |  11 O                |   174.23
    7 O                |   1 U                |  13 C                |    92.87
    1 U                |   7 O                |  14 C                |    95.64
    7 O                |   1 U                |  15 C                |   147.06
    8 O                |   1 U                |  10 O                |    67.90
    8 O                |   1 U                |  11 O                |   120.71
    8 O                |   1 U                |  13 C                |   146.02
    1 U                |   8 O                |  14 C                |    95.46
    8 O                |   1 U                |  15 C                |    94.19
   10 O                |   1 U                |  11 O                |    53.57
   10 O                |   1 U                |  13 C                |   146.07
   10 O                |   1 U                |  14 C                |    94.15
    1 U                |  10 O                |  15 C                |    95.40
   11 O                |   1 U                |  13 C                |    92.90
   11 O                |   1 U                |  14 C                |   147.05
    1 U                |  11 O                |  15 C                |    95.68
   13 C                |   1 U                |  14 C                |   119.73
   13 C                |   1 U                |  15 C                |   119.74
   14 C                |   1 U                |  15 C                |   120.53
    1 U                |   5 O                |  13 C                |    95.41
    1 U                |   6 O                |  13 C                |    95.44
    1 U                |   7 O                |  14 C                |    95.64
    1 U                |   8 O                |  14 C                |    95.46
    1 U                |  10 O                |  15 C                |    95.40
    1 U                |  11 O                |  15 C                |    95.68
    1 U                |  13 C                |   4 O                |   179.95
   13 C                |   5 O                |   1 U                |    95.41
   13 C                |   6 O                |   1 U                |    95.44
    4 O                |  13 C                |   5 O                |   122.78
    4 O                |  13 C                |   6 O                |   122.75
    5 O                |  13 C                |   6 O                |   114.46
   14 C                |   7 O                |   1 U                |    95.64
   14 C                |   8 O                |   1 U                |    95.46
    1 U                |  14 C                |   9 O                |   176.35
    7 O                |  14 C                |   8 O                |   114.98
    7 O                |  14 C                |   9 O                |   123.10
    8 O                |  14 C                |   9 O                |   121.91
   15 C                |  10 O                |   1 U                |    95.40
   15 C                |  11 O                |   1 U                |    95.68
    1 U                |  15 C                |  12 O                |   176.32
   10 O                |  15 C                |  11 O                |   114.97
   10 O                |  15 C                |  12 O                |   121.85
   11 O                |  15 C                |  12 O                |   123.16
   24 H                |  16 N                |  25 H                |   109.54
   24 H                |  16 N                |  26 H                |   111.72
   24 H                |  16 N                |  27 H                |   101.44
   25 H                |  16 N                |  26 H                |   110.79
   25 H                |  16 N                |  27 H                |   110.15
   26 H                |  16 N                |  27 H                |   112.82
   28 H                |  17 N                |  29 H                |   112.65
   28 H                |  17 N                |  30 H                |   111.61
   28 H                |  17 N                |  31 H                |   110.42
   29 H                |  17 N                |  30 H                |   101.82
   29 H                |  17 N                |  31 H                |   110.59
   30 H                |  17 N                |  31 H                |   109.46
   32 H                |  18 N                |  33 H                |   111.17
   32 H                |  18 N                |  34 H                |   100.14
   32 H                |  18 N                |  35 H                |   111.66
   33 H                |  18 N                |  34 H                |   110.73
   33 H                |  18 N                |  35 H                |   110.77
   34 H                |  18 N                |  35 H                |   111.97
   36 H                |  19 N                |  37 H                |   111.11
   36 H                |  19 N                |  38 H                |   110.80
   36 H                |  19 N                |  39 H                |   110.69
   37 H                |  19 N                |  38 H                |   100.27
   37 H                |  19 N                |  39 H                |   111.86
   38 H                |  19 N                |  39 H                |   111.73
   40 H                |  20 N                |  41 H                |   109.98
   40 H                |  20 N                |  42 H                |   110.67
   40 H                |  20 N                |  43 H                |   109.52
   41 H                |  20 N                |  42 H                |   109.99
   41 H                |  20 N                |  43 H                |   108.16
   42 H                |  20 N                |  43 H                |   108.47
   44 H                |  21 N                |  45 H                |   109.75
   44 H                |  21 N                |  46 H                |   110.93
   44 H                |  21 N                |  47 H                |   111.57
   45 H                |  21 N                |  46 H                |   111.73
   45 H                |  21 N                |  47 H                |   112.45
   46 H                |  21 N                |  47 H                |   100.14
   48 H                |  22 N                |  49 H                |   108.38
   48 H                |  22 N                |  50 H                |   110.58
   48 H                |  22 N                |  51 H                |   110.21
   49 H                |  22 N                |  50 H                |   109.53
   49 H                |  22 N                |  51 H                |   108.30
   50 H                |  22 N                |  51 H                |   109.80
   52 H                |  23 N                |  53 H                |    99.91
   52 H                |  23 N                |  54 H                |   111.03
   52 H                |  23 N                |  55 H                |   111.61
   53 H                |  23 N                |  54 H                |   111.64
   53 H                |  23 N                |  55 H                |   112.18
   54 H                |  23 N                |  55 H                |   110.14
 ------------------------------------------------------------------------------
                            number of included internuclear angles:        127
 ==============================================================================



                      Basis "aoBasis" -> "" (cartesian)
                      -----
  U (Uranium)
  -----------
            Exponent  Coefficients 
       -------------- ---------------------------------------------------------
  1 S  1.53493360E+03  0.000920
  1 S  2.27748380E+02  0.003682
  1 S  3.06968310E+01 -0.150231
  1 S  1.81706260E+01  0.903995
  1 S  1.08135370E+01 -1.485922
  1 S  2.73329800E+00  1.124404
  1 S  1.43149800E+00  0.351076

  2 S  1.53493360E+03 -0.000695
  2 S  2.27748380E+02 -0.002293
  2 S  3.06968310E+01  0.072444
  2 S  1.81706260E+01 -0.490559
  2 S  1.08135370E+01  0.889840
  2 S  2.73329800E+00 -1.115758
  2 S  1.43149800E+00 -0.333650

  3 S  1.53493360E+03  0.000223
  3 S  2.27748380E+02  0.000722
  3 S  3.06968310E+01 -0.021702
  3 S  1.81706260E+01  0.149796
  3 S  1.08135370E+01 -0.276110
  3 S  2.73329800E+00  0.376579
  3 S  1.43149800E+00  0.124408

  4 S  6.15298000E-01  1.000000

  5 S  2.86639000E-01  1.000000

  6 S  7.11700000E-02  1.000000

  7 S  3.05390000E-02  1.000000

  8 S  5.00000000E-03  1.000000

  9 P  5.53345250E+02 -0.001610
  9 P  1.09255010E+02 -0.011087
  9 P  2.34760300E+01 -0.046619
  9 P  6.79447200E+00  0.644153
  9 P  5.43231900E+00 -0.520455
  9 P  2.70216900E+00 -0.631154

 10 P  5.53345250E+02 -0.001075
 10 P  1.09255010E+02 -0.008042
 10 P  2.34760300E+01 -0.027969
 10 P  6.79447200E+00  0.469049
 10 P  5.43231900E+00 -0.492639
 10 P  2.70216900E+00 -0.375766

 11 P  1.49385700E+00  1.000000

 12 P  7.92817000E-01  1.000000

 13 P  3.51542000E-01  1.000000

 14 P  1.43962000E-01  1.000000

 15 P  5.00000000E-03  1.000000

 16 D  8.12028580E+01 -0.001620
 16 D  1.83255750E+01 -0.025181
 16 D  1.04546990E+01  0.089632
 16 D  3.66631200E+00 -0.409429
 16 D  1.92334900E+00 -0.482260
 16 D  9.89638000E-01 -0.210903

 17 D  8.12028580E+01 -0.000639
 17 D  1.83255750E+01 -0.007021
 17 D  1.04546990E+01  0.026642
 17 D  3.66631200E+00 -0.157132
 17 D  1.92334900E+00 -0.157572
 17 D  9.89638000E-01 -0.001100

 18 D  4.95346000E-01  1.000000

 19 D  2.04455000E-01  1.000000

 20 D  7.32730000E-02  1.000000

 21 D  5.00000000E-03  1.000000

 22 F  5.53345250E+01  0.001294
 22 F  1.65886490E+01  0.009857
 22 F  4.75751800E+00  0.130386
 22 F  2.38755000E+00  0.318083
 22 F  1.13019500E+00  0.395314

 23 F  4.89535000E-01  1.000000

 24 F  1.81420000E-01  1.000000

 25 F  5.00000000E-03  1.000000

  O1 (Oxygen)
  -----------
            Exponent  Coefficients 
       -------------- ---------------------------------------------------------
  1 S  1.53300000E+04  0.000508
  1 S  2.29900000E+03  0.003929
  1 S  5.22400000E+02  0.020243
  1 S  1.47300000E+02  0.079181
  1 S  4.75500000E+01  0.230687
  1 S  1.67600000E+01  0.433118
  1 S  6.20700000E+00  0.350260
  1 S  6.88200000E-01 -0.008154

  2 S  1.53300000E+04 -0.000115
  2 S  2.29900000E+03 -0.000895
  2 S  5.22400000E+02 -0.004636
  2 S  1.47300000E+02 -0.018724
  2 S  4.75500000E+01 -0.058463
  2 S  1.67600000E+01 -0.136463
  2 S  6.20700000E+00 -0.175740
  2 S  6.88200000E-01  0.603418

  3 S  1.75200000E+00  1.000000

  4 S  2.38400000E-01  1.000000

  5 S  7.37600000E-02  1.000000

  6 P  3.44600000E+01  0.015928
  6 P  7.74900000E+00  0.099740
  6 P  2.28000000E+00  0.310492

  7 P  7.15600000E-01  1.000000

  8 P  2.14000000E-01  1.000000

  9 P  5.97400000E-02  1.000000

 10 D  2.31400000E+00  1.000000

 11 D  6.45000000E-01  1.000000

 12 D  2.14000000E-01  1.000000

 13 F  1.42800000E+00  1.000000

 14 F  5.00000000E-01  1.000000

  O (Oxygen)
  ----------
            Exponent  Coefficients 
       -------------- ---------------------------------------------------------
  1 S  4.71055180E+01 -0.014408
  1 S  5.91134600E+00  0.129568
  1 S  9.76483000E-01 -0.563118

  2 S  2.96070000E-01  1.000000

  3 P  1.66922190E+01  0.044856
  3 P  3.90070200E+00  0.222613
  3 P  1.07825300E+00  0.500188

  4 P  2.84189000E-01  1.000000

  5 P  7.02000000E-02  1.000000

  C (Carbon)
  ----------
            Exponent  Coefficients 
       -------------- ---------------------------------------------------------
  1 S  2.26310100E+00  0.496548
  1 S  1.77318600E+00 -0.422391
  1 S  4.08619000E-01 -0.599356

  2 S  1.39175000E-01  1.000000

  3 P  8.38302500E+00 -0.038544
  3 P  1.99313200E+00 -0.203185
  3 P  5.59543000E-01 -0.498176

  4 P  1.56126000E-01  1.000000

  N (Nitrogen)
  ------------
            Exponent  Coefficients 
       -------------- ---------------------------------------------------------
  1 S  3.26568390E+01 -0.013794
  1 S  4.58918900E+00  0.129129
  1 S  7.06251000E-01 -0.568094

  2 S  2.16399000E-01  1.000000

  3 P  1.21469740E+01 -0.041296
  3 P  2.88426500E+00 -0.214009
  3 P  8.08564000E-01 -0.502783

  4 P  2.22163000E-01  1.000000

  H (Hydrogen)
  ------------
            Exponent  Coefficients 
       -------------- ---------------------------------------------------------
  1 S  1.30100000E+01  0.019685
  1 S  1.96200000E+00  0.137977
  1 S  4.44600000E-01  0.478148

  2 S  1.22000000E-01  1.000000

  3 P  7.27000000E-01  1.000000



 Summary of "aoBasis" -> "" (cartesian)
 ------------------------------------------------------------------------------
       Tag                 Description            Shells   Functions and Types
 ---------------- ------------------------------  ------  ---------------------
 U                   Stuttgart RSC 1997 ECP         25      105   8s7p6d4f
 O1                       aug-cc-pvtz               14       55   5s4p3d2f
 O                     Stuttgart RLC ECP             5       11   2s3p
 C                     Stuttgart RLC ECP             4        8   2s2p
 N                     Stuttgart RLC ECP             4        8   2s2p
 H                          cc-pvdz                  3        5   2s1p



 **** WARNING Zero Coefficient **** on atom "               U"
 angular momentum value:-1  standard basis set name: "Stuttgart RSC 1997 ECP"
 input line that generated warning:
  3840: 2      1.000000000            0.000000000
  
 Local ECP potential is zero and ignored
  

 **** WARNING Zero Coefficient **** on atom "               O"
 angular momentum value:-1  standard basis set name: "Stuttgart RLC ECP"
 input line that generated warning:
  1519: 2      1.000000000            0.000000000
  
 Local ECP potential is zero and ignored
  

 **** WARNING Zero Coefficient **** on atom "               C"
 angular momentum value:-1  standard basis set name: "Stuttgart RLC ECP"
 input line that generated warning:
  1497: 2      1.000000000            0.000000000
  
 Local ECP potential is zero and ignored
  

 **** WARNING Zero Coefficient **** on atom "               N"
 angular momentum value:-1  standard basis set name: "Stuttgart RLC ECP"
 input line that generated warning:
  1508: 2      1.000000000            0.000000000
  
 Local ECP potential is zero and ignored
  
                 ECP       "ecpPotential" -> "" (cartesian)
                -----
  U (Uranium) Replaces    60 electrons
  ------------------------------------
          R-exponent    Exponent     Coefficients 
         ------------ ---------------------------------------------------------
  1 U-s      2.00       16.414039     536.516628

  2 U-p      2.00        9.060556     169.544925

  3 U-d      2.00        8.831832     142.615598

  4 U-f      2.00        7.018516      60.393076

  5 U-g      2.00       12.804088     -60.129990

  O (Oxygen) Replaces     2 electrons
  -----------------------------------
          R-exponent    Exponent     Coefficients 
         ------------ ---------------------------------------------------------
  1 U-s      2.00       10.445670      50.771069

  2 U-p      2.00       18.045174      -4.903551

  3 U-d      2.00        8.164798      -3.312124

  C (Carbon) Replaces     2 electrons
  -----------------------------------
          R-exponent    Exponent     Coefficients 
         ------------ ---------------------------------------------------------
  1 U-s      2.00        6.401052      33.121638

  2 U-p      2.00        7.307747      -1.986257

  3 U-d      2.00        5.961796      -9.454318

  N (Nitrogen) Replaces     2 electrons
  -------------------------------------
          R-exponent    Exponent     Coefficients 
         ------------ ---------------------------------------------------------
  1 U-s      2.00        7.977232      38.533831

  2 U-p      2.00       10.183854      -2.550810

  3 U-d      2.00       11.559947      -2.995545


                                 NWChem DFT Module
                                 -----------------


  Caching 1-el integrals 

            General Information
            -------------------
          SCF calculation type: DFT
          Wavefunction type:  closed shell.
          No. of atoms     :    55
          No. of electrons :   178
           Alpha electrons :    89
            Beta electrons :    89
          Charge           :     4
          Spin multiplicity:     1
          Use of symmetry is: off; symmetry adaption is: off
          Maximum number of iterations: 200
          This is a Direct SCF calculation.
          AO basis - number of functions:   562
                     number of shells:   238
          Convergence on energy requested: 1.00D-06
          Convergence on density requested: 1.00D-05
          Convergence on gradient requested: 5.00D-04

              XC Information
              --------------
                         PBE0 Method XC Functional
                     Hartree-Fock (Exact) Exchange  0.250          
          PerdewBurkeErnzerhof Exchange Functional  0.750          
            Perdew 1991 LDA Correlation Functional  1.000 local    
           PerdewBurkeErnz. Correlation Functional  1.000 non-local

             Grid Information
             ----------------
          Grid used for XC integration:  medium    
          Radial quadrature: Mura-Knowles        
          Angular quadrature: Lebedev. 
          Tag              B.-S. Rad. Rad. Pts. Rad. Cut. Ang. Pts.
          ---              ---------- --------- --------- ---------
          U                   1.75      123          25.0       590
          O1                  0.60       49          15.0       434
          O                   0.60       49          17.0       434
          C                   0.70       49          15.0       434
          N                   0.65       49          19.0       434
          H                   0.35       45          20.0       434
          Grid pruning is: on 
          Number of quadrature shells:  2641
          Spatial weights used:  Erf1

          Convergence Information
          -----------------------
          Convergence aids based upon iterative change in 
          total energy or number of iterations. 
          Levelshifting, if invoked, occurs when the 
          HOMO/LUMO gap drops below (HL_TOL): 1.00D-02
          DIIS, if invoked, will attempt to extrapolate 
          using up to (NFOCK): 10 stored Fock matrices.

                    Damping( 0%)  Levelshifting(0.5)       DIIS
                  --------------- ------------------- ---------------
          dE  on:    start            ASAP                start   
          dE off:    2 iters        200 iters           200 iters 


      Screening Tolerance Information
      -------------------------------
          Density screening/tol_rho: 1.00D-10
          AO Gaussian exp screening on grid/accAOfunc:  14
          CD Gaussian exp screening on grid/accCDfunc:  20
          XC Gaussian exp screening on grid/accXCfunc:  20
          Schwarz screening/accCoul: 1.00D-08


 WARNING : Found     6 linear dependencies 
 S eigenvalue threshold:     1.00000E-05
 Smallest S eigenvalue :     3.38808E-07
 Largest  S eigenvalue :     7.39727E-06


 !! The overlap matrix has   6 vectors deemed linearly dependent with
    eigenvalues:
 3.39D-07 2.65D-06 3.65D-06 4.64D-06 4.67D-06 7.40D-06


 Loading old vectors from job with title :



   Time after variat. SCF:     31.9
   Time prior to 1st pass:     32.0

 Grid_pts file          = ./nmrrun.gridpts.0
[...]
        0.056715       0.106984      -0.992642
       -0.309577       0.947122       0.084390
  

 ------------------------------------------------------------
   Atom      X         Y         Z
 ------------------------------------------------------------
   44 H   -6.96011   5.16930   3.44639
 ------------------------------------------------------------

 Electric field gradient in molecular frame (a.u.)
         XX             YY             ZZ             XY             XZ             YZ
 ------------------------------------------------------------------------------------------
       -0.198899       0.137330       0.061569       0.075995       0.194501      -0.037513

 Principal components (a.u.) and orientation 
 of principal axis w.r.t. absolute frame                      Asymmetry parameter eta
 --------------------------------------------------------------------------------------
        0.152525       0.165958      -0.318483                       3.176131

        0.063054       0.492934       0.867779
        0.962923       0.198483      -0.182714
       -0.262305       0.847125      -0.462142
  

 ------------------------------------------------------------
   Atom      X         Y         Z
 ------------------------------------------------------------
   45 H   -4.54380   6.49238   1.76534
 ------------------------------------------------------------

 Electric field gradient in molecular frame (a.u.)
         XX             YY             ZZ             XY             XZ             YZ
 ------------------------------------------------------------------------------------------
        0.089179      -0.178236       0.089057      -0.151805       0.073677       0.158684

 Principal components (a.u.) and orientation 
 of principal axis w.r.t. absolute frame                      Asymmetry parameter eta
 --------------------------------------------------------------------------------------
        0.157327       0.164063      -0.321390                       3.085641

        0.839342       0.388618      -0.380106
       -0.490513       0.240047      -0.837720
       -0.234310       0.889580       0.392104
  

 ------------------------------------------------------------
   Atom      X         Y         Z
 ------------------------------------------------------------
   46 H   -3.95406   3.94849   3.78243
 ------------------------------------------------------------

 Electric field gradient in molecular frame (a.u.)
         XX             YY             ZZ             XY             XZ             YZ
 ------------------------------------------------------------------------------------------
       -0.048962       0.081149      -0.032187       0.092911      -0.165768       0.100061

 Principal components (a.u.) and orientation 
 of principal axis w.r.t. absolute frame                      Asymmetry parameter eta
 --------------------------------------------------------------------------------------
        0.121088       0.139796      -0.260884                       3.308999

       -0.737858      -0.099455      -0.667588
       -0.444948       0.815411       0.370305
        0.507530       0.570275      -0.645910
  

 ------------------------------------------------------------
   Atom      X         Y         Z
 ------------------------------------------------------------
   47 H   -5.45443   3.34317   1.15314
 ------------------------------------------------------------

 Electric field gradient in molecular frame (a.u.)
         XX             YY             ZZ             XY             XZ             YZ
 ------------------------------------------------------------------------------------------
        0.103610      -0.032774      -0.070835      -0.035950      -0.025777      -0.160741

 Principal components (a.u.) and orientation 
 of principal axis w.r.t. absolute frame                      Asymmetry parameter eta
 --------------------------------------------------------------------------------------
        0.100047       0.119390      -0.219437                       3.386675

        0.712920      -0.688613       0.132506
        0.453914       0.597188       0.661308
       -0.534516      -0.411313       0.738318
  

 ------------------------------------------------------------
   Atom      X         Y         Z
 ------------------------------------------------------------
   48 H   -1.17967  -9.79766   0.47087
 ------------------------------------------------------------

 Electric field gradient in molecular frame (a.u.)
         XX             YY             ZZ             XY             XZ             YZ
 ------------------------------------------------------------------------------------------
       -0.144351       0.066269       0.078082      -0.136812       0.120606       0.060959

 Principal components (a.u.) and orientation 
 of principal axis w.r.t. absolute frame                      Asymmetry parameter eta
 --------------------------------------------------------------------------------------
        0.130705       0.134220      -0.264925                       3.053797

        0.483561      -0.265158      -0.834183
       -0.226945       0.882444      -0.412054
        0.845379       0.388567       0.366539
  

 ------------------------------------------------------------
   Atom      X         Y         Z
 ------------------------------------------------------------
   49 H    0.30654  -6.93087  -0.10679
 ------------------------------------------------------------

 Electric field gradient in molecular frame (a.u.)
         XX             YY             ZZ             XY             XZ             YZ
 ------------------------------------------------------------------------------------------
        0.094800      -0.193575       0.098775       0.025292       0.000710      -0.023473

 Principal components (a.u.) and orientation 
 of principal axis w.r.t. absolute frame                      Asymmetry parameter eta
 --------------------------------------------------------------------------------------
        0.096570       0.101061      -0.197631                       3.093022

        0.949280      -0.302418       0.086090
        0.057745      -0.101467      -0.993162
        0.309086       0.947759      -0.078858
  

 ------------------------------------------------------------
   Atom      X         Y         Z
 ------------------------------------------------------------
   50 H    2.11026  -9.56374   0.77841
 ------------------------------------------------------------

 Electric field gradient in molecular frame (a.u.)
         XX             YY             ZZ             XY             XZ             YZ
 ------------------------------------------------------------------------------------------
       -0.124493       0.097385       0.027108       0.085902      -0.162265       0.057495

 Principal components (a.u.) and orientation 
 of principal axis w.r.t. absolute frame                      Asymmetry parameter eta
 --------------------------------------------------------------------------------------
        0.126211       0.131641      -0.257852                       3.086053

        0.463961      -0.360739       0.809078
        0.843636       0.458528      -0.279337
       -0.270217       0.812169       0.517072
  

 ------------------------------------------------------------
   Atom      X         Y         Z
 ------------------------------------------------------------
   51 H    0.71110  -9.41841  -2.20189
 ------------------------------------------------------------

 Electric field gradient in molecular frame (a.u.)
         XX             YY             ZZ             XY             XZ             YZ
 ------------------------------------------------------------------------------------------
        0.128775       0.117027      -0.245802       0.009680       0.042465      -0.085249

 Principal components (a.u.) and orientation 
 of principal axis w.r.t. absolute frame                      Asymmetry parameter eta
 --------------------------------------------------------------------------------------
        0.133522       0.136073      -0.269595                       3.038217

        0.991176       0.075889      -0.108682
       -0.050889       0.974923       0.216645
        0.122397      -0.209202       0.970182
  

 ------------------------------------------------------------
   Atom      X         Y         Z
 ------------------------------------------------------------
   52 H    3.95933  -3.93042   3.78083
 ------------------------------------------------------------

 Electric field gradient in molecular frame (a.u.)
         XX             YY             ZZ             XY             XZ             YZ
 ------------------------------------------------------------------------------------------
       -0.046652       0.078031      -0.031379       0.093881       0.163123      -0.101521

 Principal components (a.u.) and orientation 
 of principal axis w.r.t. absolute frame                      Asymmetry parameter eta
 --------------------------------------------------------------------------------------
        0.119949       0.138931      -0.258880                       3.316503

        0.742383      -0.093039      -0.663484
        0.440878       0.813519       0.379228
        0.504474      -0.574048       0.644961
  

 ------------------------------------------------------------
   Atom      X         Y         Z
 ------------------------------------------------------------
   53 H    5.46844  -3.34481   1.15609
 ------------------------------------------------------------

 Electric field gradient in molecular frame (a.u.)
         XX             YY             ZZ             XY             XZ             YZ
 ------------------------------------------------------------------------------------------
        0.102460      -0.032308      -0.070152      -0.038167       0.027755       0.159859

 Principal components (a.u.) and orientation 
 of principal axis w.r.t. absolute frame                      Asymmetry parameter eta
 --------------------------------------------------------------------------------------
        0.099416       0.119410      -0.218826                       3.402234

        0.711237      -0.688427      -0.142164
        0.449654       0.601004      -0.660761
        0.540327       0.406033       0.737010
  

 ------------------------------------------------------------
   Atom      X         Y         Z
 ------------------------------------------------------------
   54 H    6.95121  -5.19132   3.44935
 ------------------------------------------------------------

 Electric field gradient in molecular frame (a.u.)
         XX             YY             ZZ             XY             XZ             YZ
 ------------------------------------------------------------------------------------------
       -0.197746       0.136075       0.061672       0.080832      -0.195428       0.040355

 Principal components (a.u.) and orientation 
 of principal axis w.r.t. absolute frame                      Asymmetry parameter eta
 --------------------------------------------------------------------------------------
        0.153421       0.167037      -0.320458                       3.177491

        0.075753      -0.496125       0.864940
        0.962135      -0.191409      -0.194057
        0.261834       0.846890       0.462840
  

 ------------------------------------------------------------
   Atom      X         Y         Z
 ------------------------------------------------------------
   55 H    4.51316  -6.47656   1.76043
 ------------------------------------------------------------

 Electric field gradient in molecular frame (a.u.)
         XX             YY             ZZ             XY             XZ             YZ
 ------------------------------------------------------------------------------------------
        0.084750      -0.173144       0.088395      -0.156524      -0.076995      -0.158839

 Principal components (a.u.) and orientation 
 of principal axis w.r.t. absolute frame                      Asymmetry parameter eta
 --------------------------------------------------------------------------------------
        0.158121       0.164648      -0.322769                       3.082554

        0.824165      -0.407340      -0.393479
       -0.508745      -0.227196      -0.830398
        0.248858       0.884565      -0.394480
  

          -----------------------------------------
          Chemical Shielding Tensors (GIAO, in ppm)
          -----------------------------------------

 Entering for xc, kfac=  0.250000000000000     
 Grid integrated density:     178.000052812586
 Requested integration accuracy:   0.10E-06
                                NWChem CPHF Module
                                ------------------


  scftype          =     RHF 
  nclosed          =       89
  nopen            =        0
  variables        =    41563
  # of vectors     =        3
  tolerance        = 0.10D-03
  level shift      = 0.00D+00
  max iterations   =       50
  max subspace     =       30

 Grid integrated density:     178.000052812586
 Requested integration accuracy:   0.10E-06
 SCF residual:   1.475040570993863E-003


Iterative solution of linear equations
  No. of variables    41563
  No. of equations        3
  Maximum subspace       30
        Iterations       50
       Convergence  1.0D-04
        Start time  42669.9


   iter   nsub   residual    time
   ----  ------  --------  ---------
     1      3    3.60D+00   45168.4
     2      6    1.08D+00   47764.7
     3      9    1.46D-01   50264.0
     4     12    1.87D-02   52762.6
     5     15    5.50D-03   55261.7
     6     18    5.82D-04   57855.4
     7     21    6.07D-05   60484.8
      Atom:    1  O 
        Diamagnetic
    120.2069      3.9539      0.3466
      3.9539    178.5719      4.7204
      0.3466      4.7204    121.2886

        Paramagnetic
  -1512.1606      2.0960      4.0875
      2.0960    -90.4956     31.7116
      4.0875     31.7116  -1518.7085

        Total Shielding Tensor
  -1391.9537      6.0499      4.4341
      6.0499     88.0763     36.4319
      4.4341     36.4319  -1397.4199

           isotropic =    -900.4324
          anisotropy =    -750.0622

          Principal Components and Axis System
                 1           2           3
            -1400.4739  -1389.8183     88.9948

      1        -0.4503      0.8928      0.0042
      2        -0.0200     -0.0148      0.9997
      3         0.8926      0.4501      0.0245



 XcsQ -0.176730824332986       0.983429504859938       4.040575084713150E-002
 YcsQ  0.982191859658850       0.173551604725834       7.196520907339973E-002
 ZcsQ  6.376022702652349E-002  5.240467028829383E-002 -0.996588372389274     
 beta   175.265850278552     
 alpha 1   39.4168602031148     
 alpha 2   39.4168602031201     
 alpha 3   39.4168602031180     
 alpha 4   219.416860203118     
 gamma 1   60.6874323239337     
 gamma 2   119.312567676072     
 gamma 3  -60.6874323239290     
 gamma 4   119.312567676071     
 validalpha   39.4168602031148      beta   175.265850278552      gamma   119.312567676072     
      Atom:    2  O 
        Diamagnetic
    120.0545      4.0657     -0.4347
      4.0657    178.5159     -4.9219
     -0.4347     -4.9219    121.2629

        Paramagnetic
  -1509.7058      0.9959     -3.8090
      0.9959    -90.2597    -31.2291
     -3.8090    -31.2291  -1519.7205

        Total Shielding Tensor
  -1389.6513      5.0617     -4.2437
      5.0617     88.2562    -36.1510
     -4.2437    -36.1510  -1398.4576

           isotropic =    -899.9509
          anisotropy =    -751.3539

          Principal Components and Axis System
                 1           2           3
            -1400.8535  -1388.1519     89.1527

      1         0.3456      0.9384      0.0035
      2         0.0216     -0.0117      0.9997
      3         0.9381     -0.3455     -0.0243



 XcsQ  7.072237793842395E-002  0.996269618743724      -4.944888296988254E-002
 YcsQ  0.995382392262760      -6.726029979957687E-002  6.848317489818515E-002
 ZcsQ  6.490175985286620E-002 -5.406384040285559E-002 -0.996426044786514     
 beta   175.154466351254     
 alpha 1   39.7946494438480     
 alpha 2  -39.7946494438466     
 alpha 3  -39.7946494438471     
 alpha 4   140.205350556153     
 gamma 1   54.1684990243052     
 gamma 2   54.1684990243066     
 gamma 3   54.1684990243062     
 gamma 4   234.168499024306     
 validalpha  -39.7946494438466      beta   175.154466351254      gamma   54.1684990243052     

 Task  times  cpu:    57475.7s     wall:    57488.9s
 Summary of allocated global arrays
-----------------------------------
  No active global arrays



                         GA Statistics for process    0
                         ------------------------------

       create   destroy   get      put      acc     scatter   gather  read&inc
calls:  444      444     5.01e+09 1.98e+05 7.07e+08  134        0        0     
number of processes/call 1.00e+00 1.00e+00 1.00e+00 1.00e+00 0.00e+00
bytes total:             4.87e+11 9.95e+08 2.55e+11 3.26e+08 0.00e+00 0.00e+00
bytes remote:            0.00e+00 0.00e+00 0.00e+00 0.00e+00 0.00e+00 0.00e+00
Max memory consumed for GA by this process: 98543328 bytes
MA_summarize_allocated_blocks: starting scan ...
heap block './nmrrun.grinfo.0', handle 65, address 0x1f2ddf70:
	type of elements:		char
	number of elements:		1024
	address of client space:	0x1f2ddfc4
	index for client space:		281002565
	total number of bytes:		1112
MA_summarize_allocated_blocks: scan completed: 1 heap block, 0 stack blocks
MA usage statistics:

	allocation statistics:
					      heap	     stack
					      ----	     -----
	current number of blocks	         1	         0
	maximum number of blocks	        47	        48
	current total bytes		      1112	         0
	maximum total bytes		  55319736	1509657864
	maximum total K-bytes		     55320	   1509658
	maximum total M-bytes		        56	      1510


                                NWChem Input Module
                                -------------------





                                     CITATION
                                     --------
                Please cite the following reference when publishing
                           results obtained with NWChem:

                 M. Valiev, E.J. Bylaska, N. Govind, K. Kowalski,
              T.P. Straatsma, H.J.J. van Dam, D. Wang, J. Nieplocha,
                        E. Apra, T.L. Windus, W.A. de Jong
                 "NWChem: a comprehensive and scalable open-source
                  solution for large scale molecular simulations"
                      Comput. Phys. Commun. 181, 1477 (2010)
                           doi:10.1016/j.cpc.2010.04.018

                              AUTHORS & CONTRIBUTORS
                              ----------------------
      E. J. Bylaska, W. A. de Jong, N. Govind, K. Kowalski, T. P. Straatsma,
     M. Valiev, H. J. J. van Dam, D. Wang, E. Apra, T. L. Windus, J. Hammond,
    J. Autschbach, F. Aquino, J. Mullin, P. Nichols, S. Hirata, M. T. Hackler,
   Y. Zhao, P.-D. Fan, R. J. Harrison, M. Dupuis, D. M. A. Smith, K. Glaesemann,
    J. Nieplocha, V. Tipparaju, M. Krishnan, A. Vazquez-Mayagoitia, L. Jensen,
      M. Swart, Q. Wu, T. Van Voorhis, A. A. Auer, M. Nooijen, L. D. Crosby,
        E. Brown, G. Cisneros, G. I. Fann, H. Fruchtl, J. Garza, K. Hirao,
        R. Kendall, J. A. Nichols, K. Tsemekhman, K. Wolinski, J. Anchell,
       D. Bernholdt, P. Borowski, T. Clark, D. Clerc, H. Dachsel, M. Deegan,
        K. Dyall, D. Elwood, E. Glendening, M. Gutowski, A. Hess, J. Jaffe,
        B. Johnson, J. Ju, R. Kobayashi, R. Kutteh, Z. Lin, R. Littlefield,
    X. Long, B. Meng, T. Nakajima, S. Niu, L. Pollack, M. Rosing, G. Sandrone,
       M. Stave, H. Taylor, G. Thomas, J. H. van Lenthe, A. Wong, Z. Zhang.

 Total times  cpu:    60476.9s     wall:    60491.9s
