 argument  1 = input.h2o.nw
                                         
                                         


              Northwest Computational Chemistry Package (NWChem) 6.1
              ------------------------------------------------------


                    Environmental Molecular Sciences Laboratory
                       Pacific Northwest National Laboratory
                                Richland, WA 99352

                              Copyright (c) 1994-2010
                       Pacific Northwest National Laboratory
                            Battelle Memorial Institute

             NWChem is an open-source computational chemistry package
                        distributed under the terms of the
                      Educational Community License (ECL) 2.0
             A copy of the license is included with this distribution
                              in the LICENSE.TXT file

                                  ACKNOWLEDGMENT
                                  --------------

            This software and its documentation were developed at the
            EMSL at Pacific Northwest National Laboratory, a multiprogram
            national laboratory, operated for the U.S. Department of Energy
            by Battelle under Contract Number DE-AC05-76RL01830. Support
            for this work was provided by the Department of Energy Office
            of Biological and Environmental Research, Office of Basic
            Energy Sciences, and the Office of Advanced Scientific Computing.


           Job information
           ---------------

    hostname      = fryslan
    program       = /home/bert/nwchem-6.1/bin/LINUX64/nwchem
    date          = Mon Nov 26 08:56:51 2012

    compiled      = Tue_Oct_02_14:56:02_2012
    source        = /home/bert/nwchem-6.1
    nwchem branch = 6.1
    input         = input.h2o.nw
    prefix        = nmrrun.
    data base     = ./nmrrun.db
    status        = startup
    nproc         =        1
    time left     =     -1s



           Memory information
           ------------------

    heap     =   13107201 doubles =    100.0 Mbytes
    stack    =  196608001 doubles =   1500.0 Mbytes
    global   =  196608000 doubles =   1500.0 Mbytes (distinct from heap & stack)
    total    =  406323202 doubles =   3100.0 Mbytes
    verify   = yes
    hardfail = no 


           Directory information
           ---------------------

  0 permanent = .
  0 scratch   = .




                                NWChem Input Module
                                -------------------



 Scaling coordinates for geometry "geometry" by  1.889725989
 (inverse scale =  0.529177249)


          ------
          auto-z
          ------


                             Geometry "geometry" -> ""
                             -------------------------

 Output coordinates in angstroms (scale by  1.889725989 to convert to a.u.)

  No.       Tag          Charge          X              Y              Z
 ---- ---------------- ---------- -------------- -------------- --------------
    1 O                    8.0000     0.00000000    -0.11741600     0.00000000
    2 H                    1.0000     0.00000000     0.46966400     0.75754000
    3 H                    1.0000     0.00000000     0.46966400    -0.75754000

      Atomic Mass 
      ----------- 

      O                 15.994910
      H                  1.007825


 Effective nuclear repulsion energy (a.u.)       9.1836219552

            Nuclear Dipole moment (a.u.) 
            ----------------------------
        X                 Y               Z
 ---------------- ---------------- ----------------
     0.0000000000     0.0000000000     0.0000000000



                                Z-matrix (autoz)
                                -------- 

 Units are Angstrom for bonds and degrees for angles

      Type          Name      I     J     K     L     M      Value
      ----------- --------  ----- ----- ----- ----- ----- ----------
    1 Stretch                  1     2                       0.95840
    2 Stretch                  1     3                       0.95840
    3 Bend                     2     1     3               104.44991


            XYZ format geometry
            -------------------
     3
 geometry
 O                     0.00000000    -0.11741600     0.00000000
 H                     0.00000000     0.46966400     0.75754000
 H                     0.00000000     0.46966400    -0.75754000

 ==============================================================================
                                internuclear distances
 ------------------------------------------------------------------------------
       center one      |      center two      | atomic units |  angstroms
 ------------------------------------------------------------------------------
    2 H                |   1 O                |     1.81111  |     0.95840
    3 H                |   1 O                |     1.81111  |     0.95840
 ------------------------------------------------------------------------------
                         number of included internuclear distances:          2
 ==============================================================================



 ==============================================================================
                                 internuclear angles
 ------------------------------------------------------------------------------
        center 1       |       center 2       |       center 3       |  degrees
 ------------------------------------------------------------------------------
    2 H                |   1 O                |   3 H                |   104.45
 ------------------------------------------------------------------------------
                            number of included internuclear angles:          1
 ==============================================================================





 Summary of "ao basis" -> "" (cartesian)
 ------------------------------------------------------------------------------
       Tag                 Description            Shells   Functions and Types
 ---------------- ------------------------------  ------  ---------------------
 *                        aug-cc-pvtz                 on all atoms 



                                 NWChem DFT Module
                                 -----------------


                      Basis "ao basis" -> "ao basis" (cartesian)
                      -----
  O (Oxygen)
  ----------
            Exponent  Coefficients 
       -------------- ---------------------------------------------------------
  1 S  1.53300000E+04  0.000508
  1 S  2.29900000E+03  0.003929
  1 S  5.22400000E+02  0.020243
  1 S  1.47300000E+02  0.079181
  1 S  4.75500000E+01  0.230687
  1 S  1.67600000E+01  0.433118
  1 S  6.20700000E+00  0.350260
  1 S  6.88200000E-01 -0.008154

  2 S  1.53300000E+04 -0.000115
  2 S  2.29900000E+03 -0.000895
  2 S  5.22400000E+02 -0.004636
  2 S  1.47300000E+02 -0.018724
  2 S  4.75500000E+01 -0.058463
  2 S  1.67600000E+01 -0.136463
  2 S  6.20700000E+00 -0.175740
  2 S  6.88200000E-01  0.603418

  3 S  1.75200000E+00  1.000000

  4 S  2.38400000E-01  1.000000

  5 S  7.37600000E-02  1.000000

  6 P  3.44600000E+01  0.015928
  6 P  7.74900000E+00  0.099740
  6 P  2.28000000E+00  0.310492

  7 P  7.15600000E-01  1.000000

  8 P  2.14000000E-01  1.000000

  9 P  5.97400000E-02  1.000000

 10 D  2.31400000E+00  1.000000

 11 D  6.45000000E-01  1.000000

 12 D  2.14000000E-01  1.000000

 13 F  1.42800000E+00  1.000000

 14 F  5.00000000E-01  1.000000

  H (Hydrogen)
  ------------
            Exponent  Coefficients 
       -------------- ---------------------------------------------------------
  1 S  3.38700000E+01  0.006068
  1 S  5.09500000E+00  0.045308
  1 S  1.15900000E+00  0.202822

  2 S  3.25800000E-01  1.000000

  3 S  1.02700000E-01  1.000000

  4 S  2.52600000E-02  1.000000

  5 P  1.40700000E+00  1.000000

  6 P  3.88000000E-01  1.000000

  7 P  1.02000000E-01  1.000000

  8 D  1.05700000E+00  1.000000

  9 D  2.47000000E-01  1.000000



 Summary of "ao basis" -> "ao basis" (cartesian)
 ------------------------------------------------------------------------------
       Tag                 Description            Shells   Functions and Types
 ---------------- ------------------------------  ------  ---------------------
 O                        aug-cc-pvtz               14       55   5s4p3d2f
 H                        aug-cc-pvtz                9       25   4s3p2d


  Caching 1-el integrals 

            General Information
            -------------------
          SCF calculation type: DFT
          Wavefunction type:  closed shell.
          No. of atoms     :     3
          No. of electrons :    10
           Alpha electrons :     5
            Beta electrons :     5
          Charge           :     0
          Spin multiplicity:     1
          Use of symmetry is: off; symmetry adaption is: off
          Maximum number of iterations:  30
          This is a Direct SCF calculation.
          AO basis - number of functions:   105
                     number of shells:    32
          Convergence on energy requested: 1.00D-06
          Convergence on density requested: 1.00D-05
          Convergence on gradient requested: 5.00D-04

              XC Information
              --------------
                         PBE0 Method XC Functional
                     Hartree-Fock (Exact) Exchange  0.250          
          PerdewBurkeErnzerhof Exchange Functional  0.750          
            Perdew 1991 LDA Correlation Functional  1.000 local    
           PerdewBurkeErnz. Correlation Functional  1.000 non-local

             Grid Information
             ----------------
          Grid used for XC integration:  medium    
          Radial quadrature: Mura-Knowles        
          Angular quadrature: Lebedev. 
          Tag              B.-S. Rad. Rad. Pts. Rad. Cut. Ang. Pts.
          ---              ---------- --------- --------- ---------
          O                   0.60       49          10.0       434
          H                   0.35       45          12.0       434
          Grid pruning is: on 
          Number of quadrature shells:   139
          Spatial weights used:  Erf1

          Convergence Information
          -----------------------
          Convergence aids based upon iterative change in 
          total energy or number of iterations. 
          Levelshifting, if invoked, occurs when the 
          HOMO/LUMO gap drops below (HL_TOL): 1.00D-02
          DIIS, if invoked, will attempt to extrapolate 
          using up to (NFOCK): 10 stored Fock matrices.

                    Damping( 0%)  Levelshifting(0.5)       DIIS
                  --------------- ------------------- ---------------
          dE  on:    start            ASAP                start   
          dE off:    2 iters         30 iters            30 iters 


      Screening Tolerance Information
      -------------------------------
          Density screening/tol_rho: 1.00D-10
          AO Gaussian exp screening on grid/accAOfunc:  14
          CD Gaussian exp screening on grid/accCDfunc:  20
          XC Gaussian exp screening on grid/accXCfunc:  20
          Schwarz screening/accCoul: 1.00D-08


      Superposition of Atomic Density Guess
      -------------------------------------

 Sum of atomic energies:         -75.78090571

      Non-variational initial energy
      ------------------------------

 Total energy =     -75.943422
 1-e energy   =    -121.704997
 2-e energy   =      36.577953
 HOMO         =      -0.481402
 LUMO         =       0.009958

   Time after variat. SCF:      0.6
   Time prior to 1st pass:      0.6

 Grid_pts file          = ./nmrrun.gridpts.0
 Record size in doubles =  12289        No. of grid_pts per rec  =   3070
 Max. records in memory =     23        Max. recs in file   =    862003


           Memory utilization after 1st SCF pass: 
           Heap Space remaining (MW):       12.82            12821204
          Stack Space remaining (MW):      196.61           196607374

   convergence    iter        energy       DeltaE   RMS-Dens  Diis-err    time
 ---------------- ----- ----------------- --------- --------- ---------  ------
 d= 0,ls=0.0,diis     1    -76.3415534498 -8.55D+01  5.51D-03  4.29D-01     3.9
 d= 0,ls=0.0,diis     2    -76.3245511914  1.70D-02  2.39D-03  6.48D-01     7.2
 d= 0,ls=0.0,diis     3    -76.3798521905 -5.53D-02  3.23D-04  1.49D-02    10.4
 d= 0,ls=0.0,diis     4    -76.3809876316 -1.14D-03  5.04D-05  2.21D-04    13.6
 d= 0,ls=0.0,diis     5    -76.3810052851 -1.77D-05  6.25D-06  8.45D-07    16.9
 d= 0,ls=0.0,diis     6    -76.3810053741 -8.90D-08  7.12D-07  1.90D-08    20.1


         Total DFT energy =      -76.381005374149
      One electron energy =     -123.021894569770
           Coulomb energy =       46.703748851839
    Exchange-Corr. energy =       -9.246481611408
 Nuclear repulsion energy =        9.183621955189

 Numeric. integr. density =       10.000001485582

     Total iterative time =     19.6s



                       DFT Final Molecular Orbital Analysis
                       ------------------------------------

 Vector    1  Occ=2.000000D+00  E=-1.921234D+01
              MO Center=  9.2D-15, -1.2D-01, -9.3D-14, r^2= 1.5D-02
   Bfn.  Coefficient  Atom+Function         Bfn.  Coefficient  Atom+Function  
  ----- ------------  ---------------      ----- ------------  ---------------
     1      0.977900  1 O  s          

 Vector    2  Occ=2.000000D+00  E=-1.045415D+00
              MO Center= -3.1D-11,  7.8D-02, -1.0D-12, r^2= 5.0D-01
   Bfn.  Coefficient  Atom+Function         Bfn.  Coefficient  Atom+Function  
  ----- ------------  ---------------      ----- ------------  ---------------
     2      0.474151  1 O  s                  4      0.265559  1 O  s          

 Vector    3  Occ=2.000000D+00  E=-5.506778D-01
              MO Center=  1.3D-10,  9.4D-02,  6.0D-11, r^2= 7.6D-01
   Bfn.  Coefficient  Atom+Function         Bfn.  Coefficient  Atom+Function  
  ----- ------------  ---------------      ----- ------------  ---------------
     8      0.306346  1 O  pz                11      0.287156  1 O  pz         
    57      0.199285  2 H  s                 82     -0.199285  3 H  s          

 Vector    4  Occ=2.000000D+00  E=-4.107180D-01
              MO Center= -7.0D-11, -1.8D-01,  4.6D-11, r^2= 7.4D-01
   Bfn.  Coefficient  Atom+Function         Bfn.  Coefficient  Atom+Function  
  ----- ------------  ---------------      ----- ------------  ---------------
     7      0.328546  1 O  py                10      0.326324  1 O  py         
     4     -0.278295  1 O  s                 13      0.200410  1 O  py         
     2     -0.193448  1 O  s                  5     -0.153610  1 O  s          

 Vector    5  Occ=2.000000D+00  E=-3.337947D-01
              MO Center=  9.2D-10, -7.1D-02,  3.0D-10, r^2= 7.1D-01
   Bfn.  Coefficient  Atom+Function         Bfn.  Coefficient  Atom+Function  
  ----- ------------  ---------------      ----- ------------  ---------------
     9      0.387113  1 O  px                 6      0.372462  1 O  px         
    12      0.283056  1 O  px         

 Vector    6  Occ=0.000000D+00  E=-1.281436D-02
              MO Center=  5.2D-09,  8.3D-01,  1.1D-09, r^2= 8.5D+00
   Bfn.  Coefficient  Atom+Function         Bfn.  Coefficient  Atom+Function  
  ----- ------------  ---------------      ----- ------------  ---------------
    59      0.538401  2 H  s                 84      0.538401  3 H  s          
     5     -0.507554  1 O  s                  4     -0.365180  1 O  s          
    58      0.215892  2 H  s                 83      0.215892  3 H  s          

 Vector    7  Occ=0.000000D+00  E= 2.831951D-02
              MO Center=  2.5D-10,  7.7D-01, -1.4D-09, r^2= 1.6D+01
   Bfn.  Coefficient  Atom+Function         Bfn.  Coefficient  Atom+Function  
  ----- ------------  ---------------      ----- ------------  ---------------
    59     -2.824659  2 H  s                 84      2.824659  3 H  s          
    58     -1.139054  2 H  s                 83      1.139054  3 H  s          
    17      0.766394  1 O  pz                14      0.274999  1 O  pz         
    67      0.158299  2 H  py                92     -0.158299  3 H  py         

 Vector    8  Occ=0.000000D+00  E= 8.351519D-02
              MO Center= -3.9D-09, -4.8D-01, -1.3D-10, r^2= 1.2D+01
   Bfn.  Coefficient  Atom+Function         Bfn.  Coefficient  Atom+Function  
  ----- ------------  ---------------      ----- ------------  ---------------
     5      7.362688  1 O  s                 58     -4.211402  2 H  s          
    83     -4.211402  3 H  s                 16      1.975318  1 O  py         
     4      1.706885  1 O  s                 59     -0.882647  2 H  s          
    84     -0.882647  3 H  s                 68      0.848787  2 H  pz         
    93     -0.848787  3 H  pz                67      0.660389  2 H  py         

 Vector    9  Occ=0.000000D+00  E= 1.043627D-01
              MO Center=  1.9D-08, -3.3D-01,  4.7D-09, r^2= 7.5D+00
   Bfn.  Coefficient  Atom+Function         Bfn.  Coefficient  Atom+Function  
  ----- ------------  ---------------      ----- ------------  ---------------
    15      1.550364  1 O  px                66     -0.305670  2 H  px         
    91     -0.305670  3 H  px                12     -0.282780  1 O  px         
    31      0.254470  1 O  dxy               51      0.168415  1 O  fxzz       
    49      0.154605  1 O  fxyy       

 Vector   10  Occ=0.000000D+00  E= 1.095891D-01
              MO Center= -7.3D-09,  4.0D-01, -4.3D-09, r^2= 1.0D+01
   Bfn.  Coefficient  Atom+Function         Bfn.  Coefficient  Atom+Function  
  ----- ------------  ---------------      ----- ------------  ---------------
    58      1.700986  2 H  s                 83      1.700986  3 H  s          
    16     -1.357652  1 O  py                 4      0.895059  1 O  s          
    59     -0.653211  2 H  s                 84     -0.653211  3 H  s          
    57     -0.531176  2 H  s                 82     -0.531176  3 H  s          
    13      0.360236  1 O  py                 5      0.357615  1 O  s          

 Vector   11  Occ=0.000000D+00  E= 1.281725D-01
              MO Center=  3.6D-10,  8.6D-01,  3.4D-09, r^2= 1.2D+01
   Bfn.  Coefficient  Atom+Function         Bfn.  Coefficient  Atom+Function  
  ----- ------------  ---------------      ----- ------------  ---------------
    59      3.260340  2 H  s                 84     -3.260340  3 H  s          
    58      2.959893  2 H  s                 83     -2.959893  3 H  s          
    17     -2.212294  1 O  pz                67     -1.068626  2 H  py         
    92      1.068626  3 H  py                68     -1.059940  2 H  pz         
    93     -1.059940  3 H  pz                14     -0.867028  1 O  pz         

 Vector   12  Occ=0.000000D+00  E= 1.536764D-01
              MO Center= -1.5D-11, -6.8D-01,  3.9D-10, r^2= 8.1D+00
   Bfn.  Coefficient  Atom+Function         Bfn.  Coefficient  Atom+Function  
  ----- ------------  ---------------      ----- ------------  ---------------
    58     -5.100645  2 H  s                 83      5.100645  3 H  s          
    17      3.445644  1 O  pz                59     -1.711299  2 H  s          
    84      1.711299  3 H  s                 57      0.712971  2 H  s          
    82     -0.712971  3 H  s                 80      0.510210  2 H  dzz        
   105     -0.510210  3 H  dzz               75      0.471452  2 H  dxx        

 Vector   13  Occ=0.000000D+00  E= 1.809861D-01
              MO Center= -6.0D-09,  7.7D-02,  1.6D-09, r^2= 6.6D+00
   Bfn.  Coefficient  Atom+Function         Bfn.  Coefficient  Atom+Function  
  ----- ------------  ---------------      ----- ------------  ---------------
     5      5.573727  1 O  s                 58     -3.323559  2 H  s          
    83     -3.323559  3 H  s                 67      0.986101  2 H  py         
    92      0.986101  3 H  py                13     -0.720411  1 O  py         
    33     -0.722261  1 O  dyy               68     -0.561926  2 H  pz         
    93      0.561926  3 H  pz                57      0.400600  2 H  s          

 Vector   14  Occ=0.000000D+00  E= 2.041107D-01
              MO Center=  1.6D-09,  5.1D-01,  8.2D-09, r^2= 6.0D+00
   Bfn.  Coefficient  Atom+Function         Bfn.  Coefficient  Atom+Function  
  ----- ------------  ---------------      ----- ------------  ---------------
    66      1.661292  2 H  px                91     -1.661292  3 H  px         
    32     -0.940449  1 O  dxz               77     -0.347347  2 H  dxz        
   102     -0.347347  3 H  dxz               76     -0.316158  2 H  dxy        
   101      0.316158  3 H  dxy               50     -0.303060  1 O  fxyz       
    63      0.244587  2 H  px                88     -0.244587  3 H  px         

 Vector   15  Occ=0.000000D+00  E= 2.188236D-01
              MO Center= -6.6D-09, -1.0D-01,  1.3D-09, r^2= 7.3D+00
   Bfn.  Coefficient  Atom+Function         Bfn.  Coefficient  Atom+Function  
  ----- ------------  ---------------      ----- ------------  ---------------
     5      8.661768  1 O  s                 58     -5.168074  2 H  s          
    83     -5.168074  3 H  s                 16      2.912543  1 O  py         
    35     -1.257128  1 O  dzz               57      1.080663  2 H  s          
    82      1.080663  3 H  s                 67     -1.005533  2 H  py         
    92     -1.005533  3 H  py                 4     -0.789976  1 O  s          

 Vector   16  Occ=0.000000D+00  E= 2.279598D-01
              MO Center=  9.8D-10,  3.2D-01, -1.3D-08, r^2= 6.5D+00
   Bfn.  Coefficient  Atom+Function         Bfn.  Coefficient  Atom+Function  
  ----- ------------  ---------------      ----- ------------  ---------------
    15      2.000058  1 O  px                12      1.921956  1 O  px         
    66     -1.822118  2 H  px                91     -1.822118  3 H  px         
    31      0.742295  1 O  dxy               77      0.406427  2 H  dxz        
   102     -0.406427  3 H  dxz               46     -0.256080  1 O  fxxx       
    63     -0.239120  2 H  px                88     -0.239120  3 H  px         

 Vector   17  Occ=0.000000D+00  E= 3.182026D-01
              MO Center= -6.9D-10,  3.6D-01,  9.1D-10, r^2= 8.0D+00
   Bfn.  Coefficient  Atom+Function         Bfn.  Coefficient  Atom+Function  
  ----- ------------  ---------------      ----- ------------  ---------------
    68      4.248770  2 H  pz                93      4.248770  3 H  pz         
    58     -3.823448  2 H  s                 83      3.823447  3 H  s          
    17     -3.373615  1 O  pz                67     -1.788283  2 H  py         
    92      1.788283  3 H  py                14     -1.372817  1 O  pz         
    59      0.833540  2 H  s                 84     -0.833540  3 H  s          

 Vector   18  Occ=0.000000D+00  E= 3.273924D-01
              MO Center= -6.2D-10,  7.6D-01,  9.2D-10, r^2= 8.2D+00
   Bfn.  Coefficient  Atom+Function         Bfn.  Coefficient  Atom+Function  
  ----- ------------  ---------------      ----- ------------  ---------------
     5     12.174479  1 O  s                 58     -8.119234  2 H  s          
    83     -8.119234  3 H  s                  4      5.838814  1 O  s          
    68      2.510605  2 H  pz                93     -2.510605  3 H  pz         
    67      2.096645  2 H  py                92      2.096645  3 H  py         
    13      1.880307  1 O  py                16      1.246413  1 O  py         

 Vector   19  Occ=0.000000D+00  E= 3.596061D-01
              MO Center=  1.8D-10,  9.0D-01, -3.5D-09, r^2= 6.7D+00
   Bfn.  Coefficient  Atom+Function         Bfn.  Coefficient  Atom+Function  
  ----- ------------  ---------------      ----- ------------  ---------------
    58      6.471908  2 H  s                 83     -6.471908  3 H  s          
    14     -2.917670  1 O  pz                68     -2.761033  2 H  pz         
    93     -2.761033  3 H  pz                67     -1.980454  2 H  py         
    92      1.980454  3 H  py                59      1.870816  2 H  s          
    84     -1.870816  3 H  s                 17     -1.662235  1 O  pz         

 Vector   20  Occ=0.000000D+00  E= 4.222265D-01
              MO Center= -6.8D-10, -2.8D-01, -3.2D-09, r^2= 7.1D+00
   Bfn.  Coefficient  Atom+Function         Bfn.  Coefficient  Atom+Function  
  ----- ------------  ---------------      ----- ------------  ---------------
    58     16.804225  2 H  s                 83    -16.804225  3 H  s          
    17     -4.154628  1 O  pz                68     -3.537923  2 H  pz         
    93     -3.537923  3 H  pz                57     -3.227378  2 H  s          
    82      3.227378  3 H  s                 59      1.632488  2 H  s          
    84     -1.632488  3 H  s                 67     -1.508823  2 H  py         

 Vector   21  Occ=0.000000D+00  E= 4.440277D-01
              MO Center= -3.4D-09,  3.6D-01,  4.5D-09, r^2= 5.5D+00
   Bfn.  Coefficient  Atom+Function         Bfn.  Coefficient  Atom+Function  
  ----- ------------  ---------------      ----- ------------  ---------------
     5     12.964075  1 O  s                 58    -12.254522  2 H  s          
    83    -12.254522  3 H  s                 57      3.050869  2 H  s          
    82      3.050869  3 H  s                 16      2.472670  1 O  py         
    80      1.493699  2 H  dzz              105      1.493699  3 H  dzz        
    75      1.329857  2 H  dxx              100      1.329857  3 H  dxx        

 Vector   22  Occ=0.000000D+00  E= 5.622666D-01
              MO Center= -1.6D-09, -3.7D-01,  7.8D-10, r^2= 4.2D+00
   Bfn.  Coefficient  Atom+Function         Bfn.  Coefficient  Atom+Function  
  ----- ------------  ---------------      ----- ------------  ---------------
     4      4.438158  1 O  s                 57     -2.817207  2 H  s          
    82     -2.817207  3 H  s                 13      1.832407  1 O  py         
    33      1.780438  1 O  dyy               16      1.330545  1 O  py         
    65      1.212345  2 H  pz                90     -1.212345  3 H  pz         
    67     -1.100784  2 H  py                92     -1.100784  3 H  py         


 center of mass
 --------------
 x =   0.00000000 y =  -0.09772340 z =   0.00000000

 moments of inertia (a.u.)
 ------------------
           6.333943374830           0.000000000000           0.000000000000
           0.000000000000           4.130702653614           0.000000000000
           0.000000000000           0.000000000000           2.203240721216

     Multipole analysis of the density
     ---------------------------------

     L   x y z        total         alpha         beta         nuclear
     -   - - -        -----         -----         ----         -------
     0   0 0 0      0.000000     -5.000000     -5.000000     10.000000

     1   1 0 0      0.000000      0.000000      0.000000      0.000000
     1   0 1 0      0.728051      0.364025      0.364025      0.000000
     1   0 0 1      0.000000      0.000000      0.000000      0.000000

     2   2 0 0     -5.748146     -2.874073     -2.874073      0.000000
     2   1 1 0      0.000000      0.000000      0.000000      0.000000
     2   1 0 1      0.000000      0.000000      0.000000      0.000000
     2   0 2 0     -4.768605     -3.368953     -3.368953      1.969302
     2   0 1 1      0.000000      0.000000      0.000000      0.000000
     2   0 0 2     -3.292822     -3.695726     -3.695726      4.098631


 Task  times  cpu:       20.2s     wall:       20.3s


                                NWChem Input Module
                                -------------------


                              NWChem Property Module
                              ----------------------


  itol2e modified to match energy
  convergence criterion.

                                 NWChem DFT Module
                                 -----------------


  Caching 1-el integrals 
  itol2e modified to match energy
  convergence criterion.

            General Information
            -------------------
          SCF calculation type: DFT
          Wavefunction type:  closed shell.
          No. of atoms     :     3
          No. of electrons :    10
           Alpha electrons :     5
            Beta electrons :     5
          Charge           :     0
          Spin multiplicity:     1
          Use of symmetry is: off; symmetry adaption is: off
          Maximum number of iterations:  30
          This is a Direct SCF calculation.
          AO basis - number of functions:   105
                     number of shells:    32
          Convergence on energy requested: 1.00D-07
          Convergence on density requested: 1.00D-05
          Convergence on gradient requested: 5.00D-04

              XC Information
              --------------
                         PBE0 Method XC Functional
                     Hartree-Fock (Exact) Exchange  0.250          
          PerdewBurkeErnzerhof Exchange Functional  0.750          
            Perdew 1991 LDA Correlation Functional  1.000 local    
           PerdewBurkeErnz. Correlation Functional  1.000 non-local

             Grid Information
             ----------------
          Grid used for XC integration:  fine      
          Radial quadrature: Mura-Knowles        
          Angular quadrature: Lebedev. 
          Tag              B.-S. Rad. Rad. Pts. Rad. Cut. Ang. Pts.
          ---              ---------- --------- --------- ---------
          O                   0.60       70          10.0       590
          H                   0.35       60          13.0       590
          Grid pruning is: on 
          Number of quadrature shells:   190
          Spatial weights used:  Erf1

          Convergence Information
          -----------------------
          Convergence aids based upon iterative change in 
          total energy or number of iterations. 
          Levelshifting, if invoked, occurs when the 
          HOMO/LUMO gap drops below (HL_TOL): 1.00D-02
          DIIS, if invoked, will attempt to extrapolate 
          using up to (NFOCK): 10 stored Fock matrices.

                    Damping( 0%)  Levelshifting(0.5)       DIIS
                  --------------- ------------------- ---------------
          dE  on:    start            ASAP                start   
          dE off:    2 iters         30 iters            30 iters 


      Screening Tolerance Information
      -------------------------------
          Density screening/tol_rho: 1.00D-11
          AO Gaussian exp screening on grid/accAOfunc:  16
          CD Gaussian exp screening on grid/accCDfunc:  20
          XC Gaussian exp screening on grid/accXCfunc:  20
          Schwarz screening/accCoul: 1.00D-08


 Loading old vectors from job with title :



   Time after variat. SCF:     20.3
   Time prior to 1st pass:     20.3

 Grid_pts file          = ./nmrrun.gridpts.0
 Record size in doubles =  12289        No. of grid_pts per rec  =   3070
 Max. records in memory =     42        Max. recs in file   =    862003


           Memory utilization after 1st SCF pass: 
           Heap Space remaining (MW):       12.59            12587574
          Stack Space remaining (MW):      196.61           196607374

   convergence    iter        energy       DeltaE   RMS-Dens  Diis-err    time
 ---------------- ----- ----------------- --------- --------- ---------  ------
 d= 0,ls=0.0,diis     1    -76.3810048985 -8.56D+01  1.87D-07  2.51D-10    24.8
 d= 0,ls=0.0,diis     2    -76.3810048985 -8.64D-12  1.45D-08  6.96D-12    29.3


         Total DFT energy =      -76.381004898493
      One electron energy =     -123.022145274442
           Coulomb energy =       46.704033834957
    Exchange-Corr. energy =       -9.246515414197
 Nuclear repulsion energy =        9.183621955189

 Numeric. integr. density =       10.000000019254

     Total iterative time =      9.0s



                       DFT Final Molecular Orbital Analysis
                       ------------------------------------

 Vector    1  Occ=2.000000D+00  E=-1.921234D+01
              MO Center=  1.2D-13, -1.2D-01,  1.0D-13, r^2= 1.5D-02
   Bfn.  Coefficient  Atom+Function         Bfn.  Coefficient  Atom+Function  
  ----- ------------  ---------------      ----- ------------  ---------------
     1      0.977900  1 O  s          

 Vector    2  Occ=2.000000D+00  E=-1.045416D+00
              MO Center= -3.3D-12,  7.8D-02,  2.9D-11, r^2= 5.0D-01
   Bfn.  Coefficient  Atom+Function         Bfn.  Coefficient  Atom+Function  
  ----- ------------  ---------------      ----- ------------  ---------------
     2      0.474151  1 O  s                  4      0.265559  1 O  s          

 Vector    3  Occ=2.000000D+00  E=-5.506782D-01
              MO Center=  2.3D-11,  9.4D-02, -3.0D-11, r^2= 7.6D-01
   Bfn.  Coefficient  Atom+Function         Bfn.  Coefficient  Atom+Function  
  ----- ------------  ---------------      ----- ------------  ---------------
     8      0.306345  1 O  pz                11      0.287159  1 O  pz         
    57      0.199284  2 H  s                 82     -0.199284  3 H  s          

 Vector    4  Occ=2.000000D+00  E=-4.107189D-01
              MO Center= -6.6D-11, -1.8D-01, -4.4D-11, r^2= 7.4D-01
   Bfn.  Coefficient  Atom+Function         Bfn.  Coefficient  Atom+Function  
  ----- ------------  ---------------      ----- ------------  ---------------
     7      0.328546  1 O  py                10      0.326325  1 O  py         
     4     -0.278299  1 O  s                 13      0.200410  1 O  py         
     2     -0.193448  1 O  s                  5     -0.153610  1 O  s          

 Vector    5  Occ=2.000000D+00  E=-3.337956D-01
              MO Center=  9.7D-11, -7.1D-02, -3.9D-11, r^2= 7.1D-01
   Bfn.  Coefficient  Atom+Function         Bfn.  Coefficient  Atom+Function  
  ----- ------------  ---------------      ----- ------------  ---------------
     9      0.387114  1 O  px                 6      0.372462  1 O  px         
    12      0.283056  1 O  px         

 Vector    6  Occ=0.000000D+00  E=-1.281532D-02
              MO Center= -8.4D-10,  8.3D-01,  3.5D-10, r^2= 8.5D+00
   Bfn.  Coefficient  Atom+Function         Bfn.  Coefficient  Atom+Function  
  ----- ------------  ---------------      ----- ------------  ---------------
    59      0.538424  2 H  s                 84      0.538424  3 H  s          
     5     -0.507793  1 O  s                  4     -0.365266  1 O  s          
    58      0.216028  2 H  s                 83      0.216028  3 H  s          

 Vector    7  Occ=0.000000D+00  E= 2.831254D-02
              MO Center=  4.3D-11,  7.7D-01, -2.9D-10, r^2= 1.6D+01
   Bfn.  Coefficient  Atom+Function         Bfn.  Coefficient  Atom+Function  
  ----- ------------  ---------------      ----- ------------  ---------------
    59     -2.825015  2 H  s                 84      2.825015  3 H  s          
    58     -1.139696  2 H  s                 83      1.139696  3 H  s          
    17      0.766757  1 O  pz                14      0.275152  1 O  pz         
    67      0.158448  2 H  py                92     -0.158448  3 H  py         

 Vector    8  Occ=0.000000D+00  E= 8.351226D-02
              MO Center=  1.0D-09, -4.8D-01,  7.4D-10, r^2= 1.2D+01
   Bfn.  Coefficient  Atom+Function         Bfn.  Coefficient  Atom+Function  
  ----- ------------  ---------------      ----- ------------  ---------------
     5      7.362998  1 O  s                 58     -4.211487  2 H  s          
    83     -4.211487  3 H  s                 16      1.975280  1 O  py         
     4      1.707026  1 O  s                 59     -0.882695  2 H  s          
    84     -0.882695  3 H  s                 68      0.848839  2 H  pz         
    93     -0.848839  3 H  pz                67      0.660429  2 H  py         

 Vector    9  Occ=0.000000D+00  E= 1.043624D-01
              MO Center= -1.9D-09, -3.3D-01, -2.9D-10, r^2= 7.5D+00
   Bfn.  Coefficient  Atom+Function         Bfn.  Coefficient  Atom+Function  
  ----- ------------  ---------------      ----- ------------  ---------------
    15      1.550366  1 O  px                66     -0.305671  2 H  px         
    91     -0.305671  3 H  px                12     -0.282777  1 O  px         
    31      0.254471  1 O  dxy               51      0.168415  1 O  fxzz       
    49      0.154604  1 O  fxyy       

 Vector   10  Occ=0.000000D+00  E= 1.095879D-01
              MO Center=  8.5D-09,  4.0D-01, -6.4D-09, r^2= 1.0D+01
   Bfn.  Coefficient  Atom+Function         Bfn.  Coefficient  Atom+Function  
  ----- ------------  ---------------      ----- ------------  ---------------
    58      1.701116  2 H  s                 83      1.701116  3 H  s          
    16     -1.357747  1 O  py                 4      0.895005  1 O  s          
    59     -0.653160  2 H  s                 84     -0.653160  3 H  s          
    57     -0.531161  2 H  s                 82     -0.531161  3 H  s          
    13      0.360219  1 O  py                 5      0.357348  1 O  s          

 Vector   11  Occ=0.000000D+00  E= 1.281636D-01
              MO Center=  1.3D-10,  8.6D-01,  1.2D-09, r^2= 1.2D+01
   Bfn.  Coefficient  Atom+Function         Bfn.  Coefficient  Atom+Function  
  ----- ------------  ---------------      ----- ------------  ---------------
    59     -3.260476  2 H  s                 84      3.260476  3 H  s          
    58     -2.961037  2 H  s                 83      2.961037  3 H  s          
    17      2.212937  1 O  pz                67      1.068717  2 H  py         
    92     -1.068717  3 H  py                68      1.060027  2 H  pz         
    93      1.060027  3 H  pz                14      0.867107  1 O  pz         

 Vector   12  Occ=0.000000D+00  E= 1.536742D-01
              MO Center= -1.8D-10, -6.8D-01,  3.0D-09, r^2= 8.1D+00
   Bfn.  Coefficient  Atom+Function         Bfn.  Coefficient  Atom+Function  
  ----- ------------  ---------------      ----- ------------  ---------------
    58     -5.100343  2 H  s                 83      5.100343  3 H  s          
    17      3.445350  1 O  pz                59     -1.710733  2 H  s          
    84      1.710733  3 H  s                 57      0.713019  2 H  s          
    82     -0.713019  3 H  s                 80      0.510219  2 H  dzz        
   105     -0.510219  3 H  dzz               75      0.471453  2 H  dxx        

 Vector   13  Occ=0.000000D+00  E= 1.809859D-01
              MO Center= -5.5D-10,  7.7D-02, -1.4D-09, r^2= 6.6D+00
   Bfn.  Coefficient  Atom+Function         Bfn.  Coefficient  Atom+Function  
  ----- ------------  ---------------      ----- ------------  ---------------
     5      5.573872  1 O  s                 58     -3.323670  2 H  s          
    83     -3.323670  3 H  s                 67      0.986090  2 H  py         
    92      0.986090  3 H  py                13     -0.720399  1 O  py         
    33     -0.722261  1 O  dyy               68     -0.561915  2 H  pz         
    93      0.561915  3 H  pz                57      0.400618  2 H  s          

 Vector   14  Occ=0.000000D+00  E= 2.041107D-01
              MO Center=  1.9D-10,  5.1D-01,  5.2D-11, r^2= 6.0D+00
   Bfn.  Coefficient  Atom+Function         Bfn.  Coefficient  Atom+Function  
  ----- ------------  ---------------      ----- ------------  ---------------
    66     -1.661291  2 H  px                91      1.661291  3 H  px         
    32      0.940447  1 O  dxz               77      0.347346  2 H  dxz        
   102      0.347346  3 H  dxz               76      0.316157  2 H  dxy        
   101     -0.316157  3 H  dxy               50      0.303060  1 O  fxyz       
    63     -0.244587  2 H  px                88      0.244587  3 H  px         

 Vector   15  Occ=0.000000D+00  E= 2.188229D-01
              MO Center= -3.8D-09, -1.0D-01,  1.6D-09, r^2= 7.3D+00
   Bfn.  Coefficient  Atom+Function         Bfn.  Coefficient  Atom+Function  
  ----- ------------  ---------------      ----- ------------  ---------------
     5      8.661788  1 O  s                 58     -5.168114  2 H  s          
    83     -5.168114  3 H  s                 16      2.912551  1 O  py         
    35     -1.257121  1 O  dzz               57      1.080647  2 H  s          
    82      1.080647  3 H  s                 67     -1.005526  2 H  py         
    92     -1.005526  3 H  py                 4     -0.789909  1 O  s          

 Vector   16  Occ=0.000000D+00  E= 2.279596D-01
              MO Center=  3.7D-10,  3.2D-01,  1.9D-10, r^2= 6.5D+00
   Bfn.  Coefficient  Atom+Function         Bfn.  Coefficient  Atom+Function  
  ----- ------------  ---------------      ----- ------------  ---------------
    15      2.000056  1 O  px                12      1.921954  1 O  px         
    66     -1.822117  2 H  px                91     -1.822117  3 H  px         
    31      0.742292  1 O  dxy               77      0.406426  2 H  dxz        
   102     -0.406426  3 H  dxz               46     -0.256080  1 O  fxxx       
    63     -0.239120  2 H  px                88     -0.239120  3 H  px         

 Vector   17  Occ=0.000000D+00  E= 3.182024D-01
              MO Center=  6.0D-11,  3.6D-01, -6.2D-10, r^2= 8.0D+00
   Bfn.  Coefficient  Atom+Function         Bfn.  Coefficient  Atom+Function  
  ----- ------------  ---------------      ----- ------------  ---------------
    68      4.248679  2 H  pz                93      4.248679  3 H  pz         
    58     -3.823162  2 H  s                 83      3.823162  3 H  s          
    17     -3.373654  1 O  pz                67     -1.788332  2 H  py         
    92      1.788332  3 H  py                14     -1.372879  1 O  pz         
    59      0.833541  2 H  s                 84     -0.833541  3 H  s          

 Vector   18  Occ=0.000000D+00  E= 3.273903D-01
              MO Center=  1.6D-10,  7.6D-01,  1.9D-09, r^2= 8.2D+00
   Bfn.  Coefficient  Atom+Function         Bfn.  Coefficient  Atom+Function  
  ----- ------------  ---------------      ----- ------------  ---------------
     5     12.174407  1 O  s                 58     -8.119231  2 H  s          
    83     -8.119231  3 H  s                  4      5.838847  1 O  s          
    68      2.510609  2 H  pz                93     -2.510609  3 H  pz         
    67      2.096653  2 H  py                92      2.096653  3 H  py         
    13      1.880302  1 O  py                16      1.246392  1 O  py         

 Vector   19  Occ=0.000000D+00  E= 3.596032D-01
              MO Center= -2.3D-11,  9.0D-01, -7.6D-10, r^2= 6.7D+00
   Bfn.  Coefficient  Atom+Function         Bfn.  Coefficient  Atom+Function  
  ----- ------------  ---------------      ----- ------------  ---------------
    58     -6.472472  2 H  s                 83      6.472472  3 H  s          
    14      2.917653  1 O  pz                68      2.761221  2 H  pz         
    93      2.761221  3 H  pz                67      1.980462  2 H  py         
    92     -1.980462  3 H  py                59     -1.870737  2 H  s          
    84      1.870737  3 H  s                 17      1.662230  1 O  pz         

 Vector   20  Occ=0.000000D+00  E= 4.222245D-01
              MO Center= -6.6D-11, -2.8D-01, -3.2D-09, r^2= 7.1D+00
   Bfn.  Coefficient  Atom+Function         Bfn.  Coefficient  Atom+Function  
  ----- ------------  ---------------      ----- ------------  ---------------
    58     16.803991  2 H  s                 83    -16.803991  3 H  s          
    17     -4.154481  1 O  pz                68     -3.537869  2 H  pz         
    93     -3.537869  3 H  pz                57     -3.227398  2 H  s          
    82      3.227398  3 H  s                 59      1.632341  2 H  s          
    84     -1.632341  3 H  s                 67     -1.508728  2 H  py         

 Vector   21  Occ=0.000000D+00  E= 4.440273D-01
              MO Center=  1.1D-09,  3.6D-01,  3.1D-10, r^2= 5.5D+00
   Bfn.  Coefficient  Atom+Function         Bfn.  Coefficient  Atom+Function  
  ----- ------------  ---------------      ----- ------------  ---------------
     5     12.963996  1 O  s                 58    -12.254469  2 H  s          
    83    -12.254469  3 H  s                 57      3.050861  2 H  s          
    82      3.050861  3 H  s                 16      2.472663  1 O  py         
    80      1.493696  2 H  dzz              105      1.493696  3 H  dzz        
    75      1.329855  2 H  dxx              100      1.329855  3 H  dxx        

 Vector   22  Occ=0.000000D+00  E= 5.622658D-01
              MO Center= -2.6D-10, -3.7D-01, -8.5D-10, r^2= 4.2D+00
   Bfn.  Coefficient  Atom+Function         Bfn.  Coefficient  Atom+Function  
  ----- ------------  ---------------      ----- ------------  ---------------
     4      4.438127  1 O  s                 57     -2.817207  2 H  s          
    82     -2.817207  3 H  s                 13      1.832403  1 O  py         
    33      1.780449  1 O  dyy               16      1.330538  1 O  py         
    65      1.212344  2 H  pz                90     -1.212344  3 H  pz         
    67     -1.100792  2 H  py                92     -1.100791  3 H  py         


 center of mass
 --------------
 x =   0.00000000 y =  -0.09772340 z =   0.00000000

 moments of inertia (a.u.)
 ------------------
           6.333943374830           0.000000000000           0.000000000000
           0.000000000000           4.130702653614           0.000000000000
           0.000000000000           0.000000000000           2.203240721216

     Multipole analysis of the density
     ---------------------------------

     L   x y z        total         alpha         beta         nuclear
     -   - - -        -----         -----         ----         -------
     0   0 0 0      0.000000     -5.000000     -5.000000     10.000000

     1   1 0 0      0.000000      0.000000      0.000000      0.000000
     1   0 1 0      0.728053      0.364027      0.364027      0.000000
     1   0 0 1      0.000000      0.000000      0.000000      0.000000

     2   2 0 0     -5.748145     -2.874073     -2.874073      0.000000
     2   1 1 0      0.000000      0.000000      0.000000      0.000000
     2   1 0 1      0.000000      0.000000      0.000000      0.000000
     2   0 2 0     -4.768597     -3.368949     -3.368949      1.969302
     2   0 1 1      0.000000      0.000000      0.000000      0.000000
     2   0 0 2     -3.292820     -3.695725     -3.695725      4.098631


          -----------------------------------------
          Chemical Shielding Tensors (GIAO, in ppm)
          -----------------------------------------

 Entering for xc, kfac=  0.250000000000000     
                                NWChem CPHF Module
                                ------------------


  scftype          =     RHF 
  nclosed          =        5
  nopen            =        0
  variables        =      500
  # of vectors     =        3
  tolerance        = 0.10D-03
  level shift      = 0.00D+00
  max iterations   =       50
  max subspace     =       30

 SCF residual:   4.883335981452709E-006


Iterative solution of linear equations
  No. of variables      500
  No. of equations        3
  Maximum subspace       30
        Iterations       50
       Convergence  1.0D-04
        Start time     84.6


   iter   nsub   residual    time
   ----  ------  --------  ---------
     1      3    1.21D-01      96.9
     2      6    9.72D-03     109.2
     3      9    4.29D-04     121.5
     4     12    1.84D-05     133.8
      Atom:    1  O 
        Diamagnetic
    357.7822      0.0000      0.0000
      0.0000    379.8578      0.0000
      0.0000      0.0000    391.3589

        Paramagnetic
    -53.3311      0.0000      0.0000
      0.0000    -61.2280      0.0000
      0.0000      0.0000    -25.9118

        Total Shielding Tensor
    304.4511      0.0000      0.0000
      0.0000    318.6298      0.0000
      0.0000      0.0000    365.4471

           isotropic =     329.5093
          anisotropy =      53.9067

          Principal Components and Axis System
                 1           2           3
              365.4471    318.6298    304.4511

      1         0.0000      0.0000      1.0000
      2         0.0000      1.0000      0.0000
      3         1.0000      0.0000      0.0000




 Task  times  cpu:      113.5s     wall:      113.7s
 Summary of allocated global arrays
-----------------------------------
  No active global arrays



                         GA Statistics for process    0
                         ------------------------------

       create   destroy   get      put      acc     scatter   gather  read&inc
calls:  358      358     2.93e+06 1.40e+04 1.23e+06   80        0        0     
number of processes/call 1.00e+00 1.00e+00 1.00e+00 1.00e+00 0.00e+00
bytes total:             1.06e+09 2.87e+07 7.14e+08 6.50e+06 0.00e+00 0.00e+00
bytes remote:            0.00e+00 0.00e+00 0.00e+00 0.00e+00 0.00e+00 0.00e+00
Max memory consumed for GA by this process: 3439800 bytes
MA_summarize_allocated_blocks: starting scan ...
heap block './nmrrun.grinfo.0', handle 14, address 0xbd109e8:
	type of elements:		char
	number of elements:		1024
	address of client space:	0xbd10a3c
	index for client space:		18464317
	total number of bytes:		1112
MA_summarize_allocated_blocks: scan completed: 1 heap block, 0 stack blocks
MA usage statistics:

	allocation statistics:
					      heap	     stack
					      ----	     -----
	current number of blocks	         1	         0
	maximum number of blocks	        25	        48
	current total bytes		      1112	         0
	maximum total bytes		   4155760	  22679544
	maximum total K-bytes		      4156	     22680
	maximum total M-bytes		         5	        23


                                NWChem Input Module
                                -------------------





                                     CITATION
                                     --------
                Please cite the following reference when publishing
                           results obtained with NWChem:

                 M. Valiev, E.J. Bylaska, N. Govind, K. Kowalski,
              T.P. Straatsma, H.J.J. van Dam, D. Wang, J. Nieplocha,
                        E. Apra, T.L. Windus, W.A. de Jong
                 "NWChem: a comprehensive and scalable open-source
                  solution for large scale molecular simulations"
                      Comput. Phys. Commun. 181, 1477 (2010)
                           doi:10.1016/j.cpc.2010.04.018

                              AUTHORS & CONTRIBUTORS
                              ----------------------
      E. J. Bylaska, W. A. de Jong, N. Govind, K. Kowalski, T. P. Straatsma,
     M. Valiev, H. J. J. van Dam, D. Wang, E. Apra, T. L. Windus, J. Hammond,
    J. Autschbach, F. Aquino, J. Mullin, P. Nichols, S. Hirata, M. T. Hackler,
   Y. Zhao, P.-D. Fan, R. J. Harrison, M. Dupuis, D. M. A. Smith, K. Glaesemann,
    J. Nieplocha, V. Tipparaju, M. Krishnan, A. Vazquez-Mayagoitia, L. Jensen,
      M. Swart, Q. Wu, T. Van Voorhis, A. A. Auer, M. Nooijen, L. D. Crosby,
        E. Brown, G. Cisneros, G. I. Fann, H. Fruchtl, J. Garza, K. Hirao,
        R. Kendall, J. A. Nichols, K. Tsemekhman, K. Wolinski, J. Anchell,
       D. Bernholdt, P. Borowski, T. Clark, D. Clerc, H. Dachsel, M. Deegan,
        K. Dyall, D. Elwood, E. Glendening, M. Gutowski, A. Hess, J. Jaffe,
        B. Johnson, J. Ju, R. Kobayashi, R. Kutteh, Z. Lin, R. Littlefield,
    X. Long, B. Meng, T. Nakajima, S. Niu, L. Pollack, M. Rosing, G. Sandrone,
       M. Stave, H. Taylor, G. Thomas, J. H. van Lenthe, A. Wong, Z. Zhang.

 Total times  cpu:      133.8s     wall:      134.0s
