 argument  1 = prop_h2o.nw



============================== echo of input deck ==============================
echo
start prop_h2o_run
title h2o
ecce_print prop_h2o.cml

geometry
o  0.0  0.0 0.11786656
h  0.0 1.84118838 -0.93531364
h  0.0 -1.84118838 -0.93531364
end

basis
 * library cc-pvdz
end
charge 0

task scf energy
task scf optimize
task scf freq

property
 mulliken
 dipole
 quadrupole
 octupole
 esp
 efield
 efieldgrad
 electrondensity
 shielding
end

task scf property
================================================================================


                                         
                                         


              Northwest Computational Chemistry Package (NWChem) 6.1
              ------------------------------------------------------


                    Environmental Molecular Sciences Laboratory
                       Pacific Northwest National Laboratory
                                Richland, WA 99352

                              Copyright (c) 1994-2010
                       Pacific Northwest National Laboratory
                            Battelle Memorial Institute

             NWChem is an open-source computational chemistry package
                        distributed under the terms of the
                      Educational Community License (ECL) 2.0
             A copy of the license is included with this distribution
                              in the LICENSE.TXT file

                                  ACKNOWLEDGMENT
                                  --------------

            This software and its documentation were developed at the
            EMSL at Pacific Northwest National Laboratory, a multiprogram
            national laboratory, operated for the U.S. Department of Energy
            by Battelle under Contract Number DE-AC05-76RL01830. Support
            for this work was provided by the Department of Energy Office
            of Biological and Environmental Research, Office of Basic
            Energy Sciences, and the Office of Advanced Scientific Computing.


           Job information
           ---------------

    hostname      = fryslan
    program       = /home/bert/nwchem-6.1/bin/LINUX64/nwchem.test
    date          = Fri Mar 29 11:41:06 2013

    compiled      = Fri_Mar_29_11:40:34_2013
    source        = /home/bert/nwchem-6.1
    nwchem branch = 6.1
    input         = prop_h2o.nw
    prefix        = prop_h2o_run.
    data base     = ./prop_h2o_run.db
    status        = startup
    nproc         =        1
    time left     =     -1s



           Memory information
           ------------------

    heap     =   13107201 doubles =    100.0 Mbytes
    stack    =   13107201 doubles =    100.0 Mbytes
    global   =   26214400 doubles =    200.0 Mbytes (distinct from heap & stack)
    total    =   52428802 doubles =    400.0 Mbytes
    verify   = yes
    hardfail = no 


           Directory information
           ---------------------

  0 permanent = .
  0 scratch   = .




                                NWChem Input Module
                                -------------------


                                        h2o
                                        ---

 Scaling coordinates for geometry "geometry" by  1.889725989
 (inverse scale =  0.529177249)

 C2V symmetry detected

          ------
          auto-z
          ------
     1 autoz failed with cvr_scaling = 1.2 changing to 1.3
     2 autoz failed with cvr_scaling = 1.3 changing to 1.4
     3 autoz failed with cvr_scaling = 1.4 changing to 1.5
     4 autoz failed with cvr_scaling = 1.5 changing to 1.6
     5 autoz failed with cvr_scaling = 1.6 changing to 1.7

 AUTOZ failed to generate good internal coordinates.
 Cartesian coordinates will be used in optimizations.



                             Geometry "geometry" -> ""
                             -------------------------

 Output coordinates in angstroms (scale by  1.889725989 to convert to a.u.)

  No.       Tag          Charge          X              Y              Z
 ---- ---------------- ---------- -------------- -------------- --------------
    1 o                    8.0000     0.00000000     0.00000000     0.21063604
    2 h                    1.0000    -1.84118838     0.00000000    -0.84254416
    3 h                    1.0000     1.84118838     0.00000000    -0.84254416

      Atomic Mass 
      ----------- 

      o                 15.994910
      h                  1.007825


 Effective nuclear repulsion energy (a.u.)       4.1353812732

            Nuclear Dipole moment (a.u.) 
            ----------------------------
        X                 Y               Z
 ---------------- ---------------- ----------------
     0.0000000000     0.0000000000     0.0000000000

      Symmetry information
      --------------------

 Group name             C2v       
 Group number             16
 Group order               4
 No. of unique centers     2

      Symmetry unique atoms

     1    2


            XYZ format geometry
            -------------------
     3
 geometry
 o                     0.00000000     0.00000000     0.21063604
 h                    -1.84118838     0.00000000    -0.84254416
 h                     1.84118838     0.00000000    -0.84254416



 Summary of "aoBasis" -> "" (cartesian)
 ------------------------------------------------------------------------------
       Tag                 Description            Shells   Functions and Types
 ---------------- ------------------------------  ------  ---------------------
 *                          cc-pvdz                   on all atoms 


                      Basis "aoBasis" -> "aoBasis" (cartesian)
                      -----
  o (Oxygen)
  ----------
            Exponent  Coefficients 
       -------------- ---------------------------------------------------------
  1 S  1.17200000E+04  0.000710
  1 S  1.75900000E+03  0.005470
  1 S  4.00800000E+02  0.027837
  1 S  1.13700000E+02  0.104800
  1 S  3.70300000E+01  0.283062
  1 S  1.32700000E+01  0.448719
  1 S  5.02500000E+00  0.270952
  1 S  1.01300000E+00  0.015458

  2 S  1.17200000E+04 -0.000160
  2 S  1.75900000E+03 -0.001263
  2 S  4.00800000E+02 -0.006267
  2 S  1.13700000E+02 -0.025716
  2 S  3.70300000E+01 -0.070924
  2 S  1.32700000E+01 -0.165411
  2 S  5.02500000E+00 -0.116955
  2 S  1.01300000E+00  0.557368

  3 S  3.02300000E-01  1.000000

  4 P  1.77000000E+01  0.043018
  4 P  3.85400000E+00  0.228913
  4 P  1.04600000E+00  0.508728

  5 P  2.75300000E-01  1.000000

  6 D  1.18500000E+00  1.000000

  h (Hydrogen)
  ------------
            Exponent  Coefficients 
       -------------- ---------------------------------------------------------
  1 S  1.30100000E+01  0.019685
  1 S  1.96200000E+00  0.137977
  1 S  4.44600000E-01  0.478148

  2 S  1.22000000E-01  1.000000

  3 P  7.27000000E-01  1.000000



 Summary of "aoBasis" -> "aoBasis" (cartesian)
 ------------------------------------------------------------------------------
       Tag                 Description            Shells   Functions and Types
 ---------------- ------------------------------  ------  ---------------------
 o                          cc-pvdz                  6       15   3s2p1d
 h                          cc-pvdz                  3        5   2s1p


                                 NWChem SCF Module
                                 -----------------


                                        h2o



  aoBasis        = "aoBasis"
  functions       =    25
  atoms           =     3
  closed shells   =     5
  open shells     =     0
  charge          =   0.00
  wavefunction    = RHF 
  input vectors   = atomic
  output vectors  = ./prop_h2o_run.movecs
  use symmetry    = T
  symmetry adapt  = T


 Summary of "aoBasis" -> "aoBasis" (cartesian)
 ------------------------------------------------------------------------------
       Tag                 Description            Shells   Functions and Types
 ---------------- ------------------------------  ------  ---------------------
 o                          cc-pvdz                  6       15   3s2p1d
 h                          cc-pvdz                  3        5   2s1p


      Symmetry analysis of basis
      --------------------------

        a1         12
        a2          2
        b1          7
        b2          4


 Forming initial guess at       0.0s


      Superposition of Atomic Density Guess
      -------------------------------------

 Sum of atomic energies:         -75.76222910

      Non-variational initial energy
      ------------------------------

 Total energy =     -74.982729
 1-e energy   =    -112.509782
 2-e energy   =      33.391672
 HOMO         =      -0.366821
 LUMO         =      -0.174271


      Symmetry analysis of molecular orbitals - initial
      -------------------------------------------------

  Numbering of irreducible representations: 

     1 a1          2 a2          3 b1          4 b2      

  Orbital symmetries:

     1 a1          2 a1          3 b1          4 a1          5 b2      
     6 a1          7 b1          8 a1          9 b1         10 b1      
    11 a1         12 b2         13 a1         14 a2         15 b1      


 Starting SCF solution at       0.1s



 ----------------------------------------------
         Quadratically convergent ROHF

 Convergence threshold     :          1.000E-04
 Maximum no. of iterations :           30
 Final Fock-matrix accuracy:          1.000E-07
 ----------------------------------------------


 #quartets = 1.942D+03 #integrals = 1.719D+04 #direct =  0.0% #cached =100.0%


 Integral file          = ./prop_h2o_run.aoints.0
 Record size in doubles =  65536        No. of integs per rec  =  43688
 Max. records in memory =      2        Max. records in file   = 161052
 No. of bits per label  =      8        No. of bits per value  =     64


              iter       energy          gnorm     gmax       time
             ----- ------------------- --------- --------- --------
                 1      -75.1672109860  1.88D+00  8.91D-01      0.1
                 2      -75.4170464453  6.59D-01  4.22D-01      0.1
                 3      -75.4691519974  9.45D-01  5.59D-01      0.2
                 4      -75.5160827678  3.10D-01  1.63D-01      0.2
                 5      -75.5256194766  1.85D-01  1.19D-01      0.2
                 6      -75.5271145176  4.71D-02  2.69D-02      0.2
  ga_iter_lsolve: convergence stagnant ... aborting solve

 Disabled NR: increased maxiter to  40

                 7      -75.5273946758  7.45D-02  4.12D-02      0.2
                 8      -75.5278139053  1.61D-01  1.01D-01      0.2
                 9      -75.5288548442  7.71D-02  5.30D-02      0.2
                10      -75.5290280480  1.63D-02  7.83D-03      0.2
                11      -75.5290479173  6.55D-03  5.46D-03      0.2
                12      -75.5290513133  2.14D-03  1.63D-03      0.2
                13      -75.5290514733  4.86D-04  2.95D-04      0.2
                14      -75.5290514844  2.69D-04  1.32D-04      0.2
                15      -75.5290514995  3.52D-04  1.87D-04      0.2
                16      -75.5290515196  2.05D-04  1.37D-04      0.2
                17      -75.5290515208  5.30D-05  2.42D-05      0.2


       Final RHF  results 
       ------------------ 

         Total SCF energy =    -75.529051520812
      One-electron energy =   -112.996751137625
      Two-electron energy =     33.332318343657
 Nuclear repulsion energy =      4.135381273157

        Time for solution =      0.1s



       Symmetry analysis of molecular orbitals - final
       -----------------------------------------------

  Numbering of irreducible representations: 

     1 a1          2 a2          3 b1          4 b2      

  Orbital symmetries:

     1 a1          2 a1          3 b2          4 a1          5 b1      
     6 a1          7 b1          8 a1          9 b1         10 a1      
    11 b1         12 b2         13 a1         14 b1         15 a2      

             Final eigenvalues
             -----------------

              1      
    1  -20.6530
    2   -1.1909
    3   -0.5041
    4   -0.4482
    5   -0.3699
    6   -0.1020
    7    0.0263
    8    0.6106
    9    0.6460
   10    1.1438
   11    1.1550
   12    1.1734
   13    1.2324
   14    1.4390
   15    1.4391

                       ROHF Final Molecular Orbital Analysis
                       -------------------------------------

 Vector    2  Occ=2.000000D+00  E=-1.190877D+00  Symmetry=a1
              MO Center= -1.1D-15,  1.8D-17,  2.1D-01, r^2= 4.7D-01
   Bfn.  Coefficient  Atom+Function         Bfn.  Coefficient  Atom+Function  
  ----- ------------  ---------------      ----- ------------  ---------------
     3      0.577966  1 O  s                  2      0.503932  1 O  s          

 Vector    3  Occ=2.000000D+00  E=-5.040710D-01  Symmetry=b2
              MO Center=  6.5D-18, -7.9D-18,  2.1D-01, r^2= 5.5D-01
   Bfn.  Coefficient  Atom+Function         Bfn.  Coefficient  Atom+Function  
  ----- ------------  ---------------      ----- ------------  ---------------
     5      0.670901  1 O  py                 8      0.477736  1 O  py         

 Vector    4  Occ=2.000000D+00  E=-4.482178D-01  Symmetry=a1
              MO Center= -1.7D-15, -3.1D-17,  6.2D-03, r^2= 1.4D+00
   Bfn.  Coefficient  Atom+Function         Bfn.  Coefficient  Atom+Function  
  ----- ------------  ---------------      ----- ------------  ---------------
     6      0.568030  1 O  pz                 9      0.443604  1 O  pz         
    17     -0.163227  2 H  s                 22     -0.163227  3 H  s          

 Vector    5  Occ=2.000000D+00  E=-3.699275D-01  Symmetry=b1
              MO Center=  1.2D-15, -3.5D-31, -4.5D-01, r^2= 3.2D+00
   Bfn.  Coefficient  Atom+Function         Bfn.  Coefficient  Atom+Function  
  ----- ------------  ---------------      ----- ------------  ---------------
    17     -0.326811  2 H  s                 22      0.326811  3 H  s          
     4      0.315319  1 O  px                 7      0.284915  1 O  px         
    16     -0.261864  2 H  s                 21      0.261864  3 H  s          

 Vector    6  Occ=0.000000D+00  E=-1.019955D-01  Symmetry=a1
              MO Center=  1.4D-14,  1.6D-17, -6.6D-01, r^2= 4.1D+00
   Bfn.  Coefficient  Atom+Function         Bfn.  Coefficient  Atom+Function  
  ----- ------------  ---------------      ----- ------------  ---------------
    17      0.427508  2 H  s                 22      0.427508  3 H  s          
     6      0.296329  1 O  pz                16      0.290129  2 H  s          
    21      0.290129  3 H  s                  9      0.269642  1 O  pz         
     3     -0.160493  1 O  s          

 Vector    7  Occ=0.000000D+00  E= 2.634620D-02  Symmetry=b1
              MO Center= -1.2D-14, -3.7D-15, -2.2D-01, r^2= 2.7D+00
   Bfn.  Coefficient  Atom+Function         Bfn.  Coefficient  Atom+Function  
  ----- ------------  ---------------      ----- ------------  ---------------
     7      0.529047  1 O  px                 4      0.486789  1 O  px         
    17      0.338312  2 H  s                 22     -0.338312  3 H  s          
    16      0.203479  2 H  s                 21     -0.203479  3 H  s          

 Vector    8  Occ=0.000000D+00  E= 6.106458D-01  Symmetry=a1
              MO Center=  2.8D-16,  9.8D-18, -8.8D-01, r^2= 5.3D+00
   Bfn.  Coefficient  Atom+Function         Bfn.  Coefficient  Atom+Function  
  ----- ------------  ---------------      ----- ------------  ---------------
    16      0.918080  2 H  s                 21      0.918080  3 H  s          
    17     -0.885769  2 H  s                 22     -0.885769  3 H  s          
     3      0.197484  1 O  s          

 Vector    9  Occ=0.000000D+00  E= 6.460151D-01  Symmetry=b1
              MO Center=  2.0D-16,  1.2D-16, -9.1D-01, r^2= 5.7D+00
   Bfn.  Coefficient  Atom+Function         Bfn.  Coefficient  Atom+Function  
  ----- ------------  ---------------      ----- ------------  ---------------
    17      0.961052  2 H  s                 22     -0.961052  3 H  s          
    16     -0.934767  2 H  s                 21      0.934767  3 H  s          
     7      0.210763  1 O  px         

 Vector   10  Occ=0.000000D+00  E= 1.143831D+00  Symmetry=a1
              MO Center= -2.8D-14,  5.6D-17, -4.6D-01, r^2= 2.2D+00
   Bfn.  Coefficient  Atom+Function         Bfn.  Coefficient  Atom+Function  
  ----- ------------  ---------------      ----- ------------  ---------------
     3      0.778809  1 O  s                  9     -0.691381  1 O  pz         
     6      0.672709  1 O  pz                 2     -0.518644  1 O  s          
    18      0.354967  2 H  px                23     -0.354967  3 H  px         
     1     -0.233668  1 O  s          

 Vector   11  Occ=0.000000D+00  E= 1.154979D+00  Symmetry=b1
              MO Center=  2.4D-14,  2.4D-16, -1.9D-01, r^2= 2.3D+00
   Bfn.  Coefficient  Atom+Function         Bfn.  Coefficient  Atom+Function  
  ----- ------------  ---------------      ----- ------------  ---------------
     4      0.821478  1 O  px                 7     -0.757993  1 O  px         
    18      0.279184  2 H  px                23      0.279184  3 H  px         
    20      0.229602  2 H  pz                25     -0.229602  3 H  pz         

 Vector   12  Occ=0.000000D+00  E= 1.173406D+00  Symmetry=b2
              MO Center=  3.4D-35, -1.8D-18,  1.3D-01, r^2= 1.4D+00
   Bfn.  Coefficient  Atom+Function         Bfn.  Coefficient  Atom+Function  
  ----- ------------  ---------------      ----- ------------  ---------------
     8      1.003043  1 O  py                 5     -0.904910  1 O  py         
    19      0.178455  2 H  py                24      0.178455  3 H  py         

 Vector   13  Occ=0.000000D+00  E= 1.232389D+00  Symmetry=a1
              MO Center= -4.6D-16, -1.5D-17,  5.0D-01, r^2= 1.6D+00
   Bfn.  Coefficient  Atom+Function         Bfn.  Coefficient  Atom+Function  
  ----- ------------  ---------------      ----- ------------  ---------------
     3      1.282788  1 O  s                  2     -0.852944  1 O  s          
     9      0.649897  1 O  pz                 6     -0.592713  1 O  pz         
     1     -0.388273  1 O  s                 20      0.218270  2 H  pz         
    25      0.218270  3 H  pz                13     -0.195983  1 O  dyy        
    15     -0.191082  1 O  dzz               10     -0.179195  1 O  dxx        

 Vector   14  Occ=0.000000D+00  E= 1.438964D+00  Symmetry=b1
              MO Center=  4.2D-14,  6.0D-15, -8.4D-01, r^2= 3.9D+00
   Bfn.  Coefficient  Atom+Function         Bfn.  Coefficient  Atom+Function  
  ----- ------------  ---------------      ----- ------------  ---------------
    20     -0.556235  2 H  pz                25      0.556235  3 H  pz         
    18      0.436334  2 H  px                23      0.436334  3 H  px         

 Vector   15  Occ=0.000000D+00  E= 1.439107D+00  Symmetry=a2
              MO Center=  1.5D-23, -2.7D-15, -8.4D-01, r^2= 3.9D+00
   Bfn.  Coefficient  Atom+Function         Bfn.  Coefficient  Atom+Function  
  ----- ------------  ---------------      ----- ------------  ---------------
    19      0.707035  2 H  py                24     -0.707035  3 H  py         


 center of mass
 --------------
 x =   0.00000000 y =   0.00000000 z =   0.17530891

 moments of inertia (a.u.)
 ------------------
           7.090432877181           0.000000000000           0.000000000000
           0.000000000000          31.491523907392           0.000000000000
           0.000000000000           0.000000000000          24.401091030211

  Mulliken analysis of the total density
  --------------------------------------

    Atom       Charge   Shell Charges
 -----------   ------   -------------------------------------------------------
    1 O    8     8.30   2.00  0.92  1.08  2.44  1.87 -0.02
    2 H    1     0.85   0.35  0.49  0.00
    3 H    1     0.85   0.35  0.49  0.00

       Multipole analysis of the density wrt the origin
       ------------------------------------------------

     L   x y z        total         open         nuclear
     -   - - -        -----         ----         -------
     0   0 0 0      0.000000      0.000000     10.000000

     1   1 0 0      0.000000      0.000000      0.000000
     1   0 1 0      0.000000      0.000000      0.000000
     1   0 0 1     -0.686775      0.000000      0.000000

     2   2 0 0     -0.411222      0.000000     24.211635
     2   1 1 0      0.000000      0.000000      0.000000
     2   1 0 1      0.000000      0.000000      0.000000
     2   0 2 0     -6.490996      0.000000      0.000000
     2   0 1 1      0.000000      0.000000      0.000000
     2   0 0 2     -5.117797      0.000000      6.337574


 Parallel integral file used       1 records with       0 large values


 Task  times  cpu:        0.2s     wall:        0.2s


                                NWChem Input Module
                                -------------------




                           NWChem Geometry Optimization
                           ----------------------------




                                        h2o


 maximum gradient threshold         (gmax) =   0.000450
 rms gradient threshold             (grms) =   0.000300
 maximum cartesian step threshold   (xmax) =   0.001800
 rms cartesian step threshold       (xrms) =   0.001200
 fixed trust radius                (trust) =   0.300000
 maximum step size to saddle      (sadstp) =   0.100000
 energy precision                  (eprec) =   1.0D-07
 maximum number of steps          (nptopt) =   20
 initial hessian option           (inhess) =    0
 line search option               (linopt) =    1
 hessian update option            (modupd) =    1
 saddle point option              (modsad) =    0
 initial eigen-mode to follow     (moddir) =    0
 initial variable to follow       (vardir) =    0
 follow first negative mode     (firstneg) =    T
 apply conjugacy                    (opcg) =    F
 source of zmatrix                         =           


          -------------------
          Energy Minimization
          -------------------


 Using diagonal initial Hessian 

          --------
          Step   0
          --------


                         Geometry "geometry" -> "geometry"
                         ---------------------------------

 Output coordinates in angstroms (scale by  1.889725989 to convert to a.u.)

  No.       Tag          Charge          X              Y              Z
 ---- ---------------- ---------- -------------- -------------- --------------
    1 o                    8.0000     0.00000000     0.00000000     0.21063604
    2 h                    1.0000    -1.84118838     0.00000000    -0.84254416
    3 h                    1.0000     1.84118838     0.00000000    -0.84254416

      Atomic Mass 
      ----------- 

      o                 15.994910
      h                  1.007825


 Effective nuclear repulsion energy (a.u.)       4.1353812732

            Nuclear Dipole moment (a.u.) 
            ----------------------------
        X                 Y               Z
 ---------------- ---------------- ----------------
     0.0000000000     0.0000000000     0.0000000000

      Symmetry information
      --------------------

 Group name             C2v       
 Group number             16
 Group order               4
 No. of unique centers     2

      Symmetry unique atoms

     1    2

                                 NWChem SCF Module
                                 -----------------


                                        h2o



  aoBasis        = "aoBasis"
  functions       =    25
  atoms           =     3
  closed shells   =     5
  open shells     =     0
  charge          =   0.00
  wavefunction    = RHF 
  input vectors   = ./prop_h2o_run.movecs
  output vectors  = ./prop_h2o_run.movecs
  use symmetry    = T
  symmetry adapt  = T


 Summary of "aoBasis" -> "aoBasis" (cartesian)
 ------------------------------------------------------------------------------
       Tag                 Description            Shells   Functions and Types
 ---------------- ------------------------------  ------  ---------------------
 o                          cc-pvdz                  6       15   3s2p1d
 h                          cc-pvdz                  3        5   2s1p


      Symmetry analysis of basis
      --------------------------

        a1         12
        a2          2
        b1          7
        b2          4


  The SCF is already converged 

         Total SCF energy =    -75.529051520812

                              NWChem Gradients Module
                              -----------------------


                                        h2o


  wavefunction    =   RHF     

  Using symmetry


                         RHF ENERGY GRADIENTS

    atom               coordinates                        gradient
                 x          y          z           x          y          z
   1 o       0.000000   0.000000   0.398044    0.000000   0.000000   0.064811
   2 h      -3.479342   0.000000  -1.592178   -0.065090   0.000000  -0.032405
   3 h       3.479342   0.000000  -1.592178    0.065090   0.000000  -0.032405

                 ----------------------------------------
                 |  Time  |  1-e(secs)   |  2-e(secs)   |
                 ----------------------------------------
                 |  CPU   |       0.00   |       0.12   |
                 ----------------------------------------
                 |  WALL  |       0.00   |       0.12   |
                 ----------------------------------------

@ Step       Energy      Delta E   Gmax     Grms     Xrms     Xmax   Walltime
@ ---- ---------------- -------- -------- -------- -------- -------- --------
@    0     -75.52905152  0.0D+00  0.06509  0.04052  0.00000  0.00000      0.4
                                                                    

 Restricting large step in mode    2 eval= 2.3D-01 step=-5.1D-01 new=-3.0D-01
                                 NWChem SCF Module
                                 -----------------


                                        h2o



  aoBasis        = "aoBasis"
  functions       =    25
  atoms           =     3
  closed shells   =     5
  open shells     =     0
  charge          =   0.00
  wavefunction    = RHF 
  input vectors   = ./prop_h2o_run.movecs
  output vectors  = ./prop_h2o_run.movecs
  use symmetry    = T
  symmetry adapt  = T


 Summary of "aoBasis" -> "aoBasis" (cartesian)
 ------------------------------------------------------------------------------
       Tag                 Description            Shells   Functions and Types
 ---------------- ------------------------------  ------  ---------------------
 o                          cc-pvdz                  6       15   3s2p1d
 h                          cc-pvdz                  3        5   2s1p


      Symmetry analysis of basis
      --------------------------

        a1         12
        a2          2
        b1          7
        b2          4


 Forming initial guess at       0.4s


 Loading old vectors from job with title :

h2o


      Symmetry analysis of molecular orbitals - initial
      -------------------------------------------------

  Numbering of irreducible representations: 

     1 a1          2 a2          3 b1          4 b2      

  Orbital symmetries:

     1 a1          2 a1          3 b2          4 a1          5 b1      
     6 a1          7 b1          8 a1          9 b1         10 a1      
    11 b1         12 b2         13 a1         14 b1         15 a2      


 Starting SCF solution at       0.4s



 ----------------------------------------------
         Quadratically convergent ROHF

 Convergence threshold     :          1.000E-04
 Maximum no. of iterations :           30
 Final Fock-matrix accuracy:          1.000E-07
 ----------------------------------------------


 #quartets = 1.947D+03 #integrals = 1.759D+04 #direct =  0.0% #cached =100.0%


 Integral file          = ./prop_h2o_run.aoints.0
 Record size in doubles =  65536        No. of integs per rec  =  43688
 Max. records in memory =      2        Max. records in file   = 161052
 No. of bits per label  =      8        No. of bits per value  =     64


              iter       energy          gnorm     gmax       time
             ----- ------------------- --------- --------- --------
                 1      -75.5693837553  8.35D-02  4.76D-02      0.4
                 2      -75.5722869228  8.74D-03  5.52D-03      0.4
                 3      -75.5724222504  9.80D-04  5.76D-04      0.5
                 4      -75.5724228250  3.89D-06  1.71D-06      0.5


       Final RHF  results 
       ------------------ 

         Total SCF energy =    -75.572422824951
      One-electron energy =   -113.628263056183
      Two-electron energy =     33.625221703893
 Nuclear repulsion energy =      4.430618527338

        Time for solution =      0.1s



       Symmetry analysis of molecular orbitals - final
       -----------------------------------------------

  Numbering of irreducible representations: 

     1 a1          2 a2          3 b1          4 b2      

  Orbital symmetries:

     1 a1          2 a1          3 b2          4 a1          5 b1      
     6 a1          7 b1          8 a1          9 b1         10 a1      
    11 b2         12 b1         13 a1         14 b1         15 a2      

             Final eigenvalues
             -----------------

              1      
    1  -20.6573
    2   -1.1932
    3   -0.5034
    4   -0.4258
    5   -0.4092
    6   -0.0653
    7    0.0248
    8    0.6087
    9    0.6432
   10    1.1531
   11    1.1624
   12    1.1724
   13    1.2233
   14    1.4451
   15    1.4452

                       ROHF Final Molecular Orbital Analysis
                       -------------------------------------

 Vector    2  Occ=2.000000D+00  E=-1.193198D+00  Symmetry=a1
              MO Center=  1.1D-18, -1.8D-35,  1.4D-01, r^2= 4.7D-01
   Bfn.  Coefficient  Atom+Function         Bfn.  Coefficient  Atom+Function  
  ----- ------------  ---------------      ----- ------------  ---------------
     3      0.575855  1 O  s                  2      0.502491  1 O  s          

 Vector    3  Occ=2.000000D+00  E=-5.034006D-01  Symmetry=b2
              MO Center=  8.1D-18,  1.2D-17,  1.4D-01, r^2= 5.5D-01
   Bfn.  Coefficient  Atom+Function         Bfn.  Coefficient  Atom+Function  
  ----- ------------  ---------------      ----- ------------  ---------------
     5      0.670957  1 O  py                 8      0.477499  1 O  py         

 Vector    4  Occ=2.000000D+00  E=-4.257508D-01  Symmetry=a1
              MO Center= -1.0D-15, -3.5D-17, -1.4D-01, r^2= 1.7D+00
   Bfn.  Coefficient  Atom+Function         Bfn.  Coefficient  Atom+Function  
  ----- ------------  ---------------      ----- ------------  ---------------
     6      0.517080  1 O  pz                 9      0.418260  1 O  pz         
    17     -0.201968  2 H  s                 22     -0.201968  3 H  s          
    16     -0.177414  2 H  s                 21     -0.177414  3 H  s          

 Vector    5  Occ=2.000000D+00  E=-4.092137D-01  Symmetry=b1
              MO Center=  2.0D-15,  4.3D-16, -3.4D-01, r^2= 2.5D+00
   Bfn.  Coefficient  Atom+Function         Bfn.  Coefficient  Atom+Function  
  ----- ------------  ---------------      ----- ------------  ---------------
     4      0.381039  1 O  px                 7      0.326716  1 O  px         
    17     -0.274512  2 H  s                 22      0.274512  3 H  s          
    16     -0.240651  2 H  s                 21      0.240651  3 H  s          

 Vector    6  Occ=0.000000D+00  E=-6.528840D-02  Symmetry=a1
              MO Center=  1.2D-14,  2.6D-17, -5.5D-01, r^2= 3.5D+00
   Bfn.  Coefficient  Atom+Function         Bfn.  Coefficient  Atom+Function  
  ----- ------------  ---------------      ----- ------------  ---------------
    17      0.420859  2 H  s                 22      0.420859  3 H  s          
     6      0.353791  1 O  pz                 9      0.336969  1 O  pz         
    16      0.266226  2 H  s                 21      0.266226  3 H  s          
     3     -0.201337  1 O  s          

 Vector    7  Occ=0.000000D+00  E= 2.479872D-02  Symmetry=b1
              MO Center= -1.3D-14, -1.1D-32, -3.8D-01, r^2= 3.0D+00
   Bfn.  Coefficient  Atom+Function         Bfn.  Coefficient  Atom+Function  
  ----- ------------  ---------------      ----- ------------  ---------------
     7      0.500290  1 O  px                 4      0.459821  1 O  px         
    17      0.409063  2 H  s                 22     -0.409063  3 H  s          
    16      0.222701  2 H  s                 21     -0.222701  3 H  s          

 Vector    8  Occ=0.000000D+00  E= 6.087197D-01  Symmetry=a1
              MO Center=  2.0D-16,  4.0D-18, -8.6D-01, r^2= 5.0D+00
   Bfn.  Coefficient  Atom+Function         Bfn.  Coefficient  Atom+Function  
  ----- ------------  ---------------      ----- ------------  ---------------
    16      0.916932  2 H  s                 21      0.916932  3 H  s          
    17     -0.896296  2 H  s                 22     -0.896296  3 H  s          
     3      0.293466  1 O  s          

 Vector    9  Occ=0.000000D+00  E= 6.432151D-01  Symmetry=b1
              MO Center=  5.8D-16, -1.2D-32, -8.8D-01, r^2= 5.3D+00
   Bfn.  Coefficient  Atom+Function         Bfn.  Coefficient  Atom+Function  
  ----- ------------  ---------------      ----- ------------  ---------------
    17     -0.978669  2 H  s                 22      0.978669  3 H  s          
    16      0.930478  2 H  s                 21     -0.930478  3 H  s          
     7     -0.240798  1 O  px         

 Vector   10  Occ=0.000000D+00  E= 1.153123D+00  Symmetry=a1
              MO Center= -2.7D-14,  6.6D-17, -5.1D-01, r^2= 2.0D+00
   Bfn.  Coefficient  Atom+Function         Bfn.  Coefficient  Atom+Function  
  ----- ------------  ---------------      ----- ------------  ---------------
     3      0.838188  1 O  s                  6      0.634803  1 O  pz         
     9     -0.621184  1 O  pz                 2     -0.581465  1 O  s          
    18      0.362675  2 H  px                23     -0.362675  3 H  px         
     1     -0.257700  1 O  s          

 Vector   11  Occ=0.000000D+00  E= 1.162421D+00  Symmetry=b2
              MO Center=  2.8D-17, -2.8D-18,  3.2D-02, r^2= 1.5D+00
   Bfn.  Coefficient  Atom+Function         Bfn.  Coefficient  Atom+Function  
  ----- ------------  ---------------      ----- ------------  ---------------
     8      0.977907  1 O  py                 5     -0.888218  1 O  py         
    19      0.210814  2 H  py                24      0.210814  3 H  py         

 Vector   12  Occ=0.000000D+00  E= 1.172437D+00  Symmetry=b1
              MO Center=  2.3D-14,  2.0D-15, -2.2D-01, r^2= 2.1D+00
   Bfn.  Coefficient  Atom+Function         Bfn.  Coefficient  Atom+Function  
  ----- ------------  ---------------      ----- ------------  ---------------
     4      0.812512  1 O  px                 7     -0.748599  1 O  px         
    18      0.261239  2 H  px                23      0.261239  3 H  px         
    20      0.232097  2 H  pz                25     -0.232097  3 H  pz         

 Vector   13  Occ=0.000000D+00  E= 1.223338D+00  Symmetry=a1
              MO Center= -9.7D-17, -2.2D-17,  4.0D-01, r^2= 1.6D+00
   Bfn.  Coefficient  Atom+Function         Bfn.  Coefficient  Atom+Function  
  ----- ------------  ---------------      ----- ------------  ---------------
     3      1.172501  1 O  s                  2     -0.787747  1 O  s          
     9      0.683144  1 O  pz                 6     -0.629539  1 O  pz         
     1     -0.356552  1 O  s                 20      0.248645  2 H  pz         
    25      0.248645  3 H  pz                13     -0.183052  1 O  dyy        
    15     -0.177097  1 O  dzz               10     -0.151261  1 O  dxx        

 Vector   14  Occ=0.000000D+00  E= 1.445050D+00  Symmetry=b1
              MO Center=  3.9D-14,  1.1D-14, -8.1D-01, r^2= 3.5D+00
   Bfn.  Coefficient  Atom+Function         Bfn.  Coefficient  Atom+Function  
  ----- ------------  ---------------      ----- ------------  ---------------
    20     -0.547164  2 H  pz                25      0.547164  3 H  pz         
    18      0.447063  2 H  px                23      0.447063  3 H  px         

 Vector   15  Occ=0.000000D+00  E= 1.445234D+00  Symmetry=a2
              MO Center=  1.4D-23, -1.2D-14, -8.1D-01, r^2= 3.5D+00
   Bfn.  Coefficient  Atom+Function         Bfn.  Coefficient  Atom+Function  
  ----- ------------  ---------------      ----- ------------  ---------------
    19      0.706827  2 H  py                24     -0.706827  3 H  py         


 center of mass
 --------------
 x =   0.00000000 y =   0.00000000 z =   0.06852629

 moments of inertia (a.u.)
 ------------------
           5.785234379878           0.000000000000           0.000000000000
           0.000000000000          27.463979542683           0.000000000000
           0.000000000000           0.000000000000          21.678745162805

  Mulliken analysis of the total density
  --------------------------------------

    Atom       Charge   Shell Charges
 -----------   ------   -------------------------------------------------------
    1 O    8     8.34   2.00  0.92  1.08  2.44  1.92 -0.02
    2 H    1     0.83   0.36  0.46  0.00
    3 H    1     0.83   0.36  0.46  0.00

       Multipole analysis of the density wrt the origin
       ------------------------------------------------

     L   x y z        total         open         nuclear
     -   - - -        -----         ----         -------
     0   0 0 0      0.000000      0.000000     10.000000

     1   1 0 0      0.000000      0.000000      0.000000
     1   0 1 0      0.000000      0.000000      0.000000
     1   0 0 1     -0.672107      0.000000     -0.898274

     2   2 0 0     -0.425373      0.000000     21.510426
     2   1 1 0      0.000000      0.000000      0.000000
     2   1 0 1      0.000000      0.000000      0.000000
     2   0 2 0     -6.415978      0.000000      0.000000
     2   0 1 1      0.000000      0.000000      0.000000
     2   0 0 2     -4.926894      0.000000      5.251650


 Parallel integral file used       1 records with       0 large values

 Line search: 
     step= 1.00 grad=-3.8D-02 hess=-4.9D-03 energy=    -75.572423 mode=negative
 new step= 2.00                   predicted energy=    -75.625559

          --------
          Step   1
          --------


                         Geometry "geometry" -> "geometry"
                         ---------------------------------

 Output coordinates in angstroms (scale by  1.889725989 to convert to a.u.)

  No.       Tag          Charge          X              Y              Z
 ---- ---------------- ---------- -------------- -------------- --------------
    1 o                    8.0000     0.00000000     0.00000000     0.07482292
    2 h                    1.0000    -1.62970017     0.00000000    -0.77463760
    3 h                    1.0000     1.62970017     0.00000000    -0.77463760

      Atomic Mass 
      ----------- 

      o                 15.994910
      h                  1.007825


 Effective nuclear repulsion energy (a.u.)       4.7694059705

            Nuclear Dipole moment (a.u.) 
            ----------------------------
        X                 Y               Z
 ---------------- ---------------- ----------------
     0.0000000000     0.0000000000    -1.7965471419

      Symmetry information
      --------------------

 Group name             C2v       
 Group number             16
 Group order               4
 No. of unique centers     2

      Symmetry unique atoms

     1    2

                                 NWChem SCF Module
                                 -----------------


                                        h2o



  aoBasis        = "aoBasis"
  functions       =    25
  atoms           =     3
  closed shells   =     5
  open shells     =     0
  charge          =   0.00
  wavefunction    = RHF 
  input vectors   = ./prop_h2o_run.movecs
  output vectors  = ./prop_h2o_run.movecs
  use symmetry    = T
  symmetry adapt  = T


 Summary of "aoBasis" -> "aoBasis" (cartesian)
 ------------------------------------------------------------------------------
       Tag                 Description            Shells   Functions and Types
 ---------------- ------------------------------  ------  ---------------------
 o                          cc-pvdz                  6       15   3s2p1d
 h                          cc-pvdz                  3        5   2s1p


      Symmetry analysis of basis
      --------------------------

        a1         12
        a2          2
        b1          7
        b2          4


 Forming initial guess at       0.6s


 Loading old vectors from job with title :

h2o


      Symmetry analysis of molecular orbitals - initial
      -------------------------------------------------

  Numbering of irreducible representations: 

     1 a1          2 a2          3 b1          4 b2      

  Orbital symmetries:

     1 a1          2 a1          3 b2          4 a1          5 b1      
     6 a1          7 b1          8 a1          9 b1         10 a1      
    11 b2         12 b1         13 a1         14 b1         15 a2      


 Starting SCF solution at       0.6s



 ----------------------------------------------
         Quadratically convergent ROHF

 Convergence threshold     :          1.000E-04
 Maximum no. of iterations :           30
 Final Fock-matrix accuracy:          1.000E-07
 ----------------------------------------------


 #quartets = 1.952D+03 #integrals = 1.791D+04 #direct =  0.0% #cached =100.0%


 Integral file          = ./prop_h2o_run.aoints.0
 Record size in doubles =  65536        No. of integs per rec  =  43688
 Max. records in memory =      2        Max. records in file   = 161052
 No. of bits per label  =      8        No. of bits per value  =     64


              iter       energy          gnorm     gmax       time
             ----- ------------------- --------- --------- --------
                 1      -75.6211593737  9.68D-02  4.29D-02      0.5
                 2      -75.6223807140  6.81D-03  4.91D-03      0.6
                 3      -75.6224486727  3.05D-04  1.62D-04      0.6
                 4      -75.6224486911  1.97D-06  7.97D-07      0.6


       Final RHF  results 
       ------------------ 

         Total SCF energy =    -75.622448691064
      One-electron energy =   -114.373768379488
      Two-electron energy =     33.981913717924
 Nuclear repulsion energy =      4.769405970499

        Time for solution =      0.1s



       Symmetry analysis of molecular orbitals - final
       -----------------------------------------------

  Numbering of irreducible representations: 

     1 a1          2 a2          3 b1          4 b2      

  Orbital symmetries:

     1 a1          2 a1          3 b2          4 b1          5 a1      
     6 a1          7 b1          8 a1          9 b1         10 b2      
    11 a1         12 a1         13 b1         14 a2         15 b1      

             Final eigenvalues
             -----------------

              1      
    1  -20.6496
    2   -1.1928
    3   -0.4983
    4   -0.4376
    5   -0.4266
    6   -0.0386
    7    0.0484
    8    0.6031
    9    0.6381
   10    1.1529
   11    1.1821
   12    1.2168
   13    1.2203
   14    1.4495
   15    1.4496

                       ROHF Final Molecular Orbital Analysis
                       -------------------------------------

 Vector    2  Occ=2.000000D+00  E=-1.192835D+00  Symmetry=a1
              MO Center= -7.1D-18, -1.0D-17,  6.3D-02, r^2= 4.8D-01
   Bfn.  Coefficient  Atom+Function         Bfn.  Coefficient  Atom+Function  
  ----- ------------  ---------------      ----- ------------  ---------------
     3      0.574435  1 O  s                  2      0.498196  1 O  s          

 Vector    3  Occ=2.000000D+00  E=-4.983175D-01  Symmetry=b2
              MO Center=  1.0D-17,  1.9D-17,  7.1D-02, r^2= 5.6D-01
   Bfn.  Coefficient  Atom+Function         Bfn.  Coefficient  Atom+Function  
  ----- ------------  ---------------      ----- ------------  ---------------
     5      0.667673  1 O  py                 8      0.480844  1 O  py         

 Vector    4  Occ=2.000000D+00  E=-4.376383D-01  Symmetry=b1
              MO Center=  1.8D-15,  5.8D-16, -3.2D-01, r^2= 2.1D+00
   Bfn.  Coefficient  Atom+Function         Bfn.  Coefficient  Atom+Function  
  ----- ------------  ---------------      ----- ------------  ---------------
     4      0.401864  1 O  px                 7      0.333779  1 O  px         
    17     -0.245223  2 H  s                 22      0.245223  3 H  s          
    16     -0.237471  2 H  s                 21      0.237471  3 H  s          

 Vector    5  Occ=2.000000D+00  E=-4.266278D-01  Symmetry=a1
              MO Center= -1.1D-15, -2.6D-17, -1.9D-01, r^2= 1.6D+00
   Bfn.  Coefficient  Atom+Function         Bfn.  Coefficient  Atom+Function  
  ----- ------------  ---------------      ----- ------------  ---------------
     6      0.505918  1 O  pz                 9      0.412245  1 O  pz         
    17     -0.201241  2 H  s                 22     -0.201241  3 H  s          
    16     -0.188312  2 H  s                 21     -0.188312  3 H  s          

 Vector    6  Occ=0.000000D+00  E=-3.864931D-02  Symmetry=a1
              MO Center= -1.2D-15,  2.8D-17, -5.3D-01, r^2= 3.2D+00
   Bfn.  Coefficient  Atom+Function         Bfn.  Coefficient  Atom+Function  
  ----- ------------  ---------------      ----- ------------  ---------------
    17      0.436097  2 H  s                 22      0.436097  3 H  s          
     6      0.360451  1 O  pz                 9      0.356975  1 O  pz         
     3     -0.256881  1 O  s                 16      0.256255  2 H  s          
    21      0.256255  3 H  s          

 Vector    7  Occ=0.000000D+00  E= 4.837703D-02  Symmetry=b1
              MO Center=  6.0D-16,  4.6D-17, -4.5D-01, r^2= 3.0D+00
   Bfn.  Coefficient  Atom+Function         Bfn.  Coefficient  Atom+Function  
  ----- ------------  ---------------      ----- ------------  ---------------
     7      0.510741  1 O  px                17      0.465678  2 H  s          
    22     -0.465678  3 H  s                  4      0.448945  1 O  px         
    16      0.219249  2 H  s                 21     -0.219249  3 H  s          

 Vector    8  Occ=0.000000D+00  E= 6.031045D-01  Symmetry=a1
              MO Center=  1.9D-17, -4.5D-18, -8.4D-01, r^2= 4.6D+00
   Bfn.  Coefficient  Atom+Function         Bfn.  Coefficient  Atom+Function  
  ----- ------------  ---------------      ----- ------------  ---------------
    16      0.911360  2 H  s                 21      0.911360  3 H  s          
    17     -0.901429  2 H  s                 22     -0.901429  3 H  s          
     3      0.378804  1 O  s          

 Vector    9  Occ=0.000000D+00  E= 6.381293D-01  Symmetry=b1
              MO Center=  3.3D-16, -7.2D-17, -8.3D-01, r^2= 5.0D+00
   Bfn.  Coefficient  Atom+Function         Bfn.  Coefficient  Atom+Function  
  ----- ------------  ---------------      ----- ------------  ---------------
    17     -0.990411  2 H  s                 22      0.990411  3 H  s          
    16      0.922886  2 H  s                 21     -0.922886  3 H  s          
     7     -0.248368  1 O  px         

 Vector   10  Occ=0.000000D+00  E= 1.152920D+00  Symmetry=b2
              MO Center=  1.4D-17,  2.8D-18, -5.6D-02, r^2= 1.5D+00
   Bfn.  Coefficient  Atom+Function         Bfn.  Coefficient  Atom+Function  
  ----- ------------  ---------------      ----- ------------  ---------------
     8      0.947527  1 O  py                 5     -0.873428  1 O  py         
    19      0.236343  2 H  py                24      0.236343  3 H  py         

 Vector   11  Occ=0.000000D+00  E= 1.182054D+00  Symmetry=a1
              MO Center= -5.2D-16,  4.5D-17, -4.3D-01, r^2= 1.7D+00
   Bfn.  Coefficient  Atom+Function         Bfn.  Coefficient  Atom+Function  
  ----- ------------  ---------------      ----- ------------  ---------------
     6      0.760300  1 O  pz                 9     -0.743752  1 O  pz         
     3      0.544652  1 O  s                  2     -0.405302  1 O  s          
    18      0.327292  2 H  px                23     -0.327292  3 H  px         
     1     -0.174423  1 O  s          

 Vector   12  Occ=0.000000D+00  E= 1.216824D+00  Symmetry=a1
              MO Center= -2.8D-17,  7.2D-18,  1.7D-01, r^2= 1.9D+00
   Bfn.  Coefficient  Atom+Function         Bfn.  Coefficient  Atom+Function  
  ----- ------------  ---------------      ----- ------------  ---------------
     3      1.262743  1 O  s                  2     -0.878109  1 O  s          
     9      0.511498  1 O  pz                 6     -0.451117  1 O  pz         
     1     -0.390814  1 O  s                 20      0.278106  2 H  pz         
    25      0.278106  3 H  pz                13     -0.203458  1 O  dyy        
    15     -0.193323  1 O  dzz               18      0.178466  2 H  px         

 Vector   13  Occ=0.000000D+00  E= 1.220339D+00  Symmetry=b1
              MO Center=  1.8D-15,  1.0D-17, -2.4D-01, r^2= 1.9D+00
   Bfn.  Coefficient  Atom+Function         Bfn.  Coefficient  Atom+Function  
  ----- ------------  ---------------      ----- ------------  ---------------
     4      0.817299  1 O  px                 7     -0.752363  1 O  px         
    20      0.246189  2 H  pz                25     -0.246189  3 H  pz         
    18      0.228176  2 H  px                23      0.228176  3 H  px         
    16     -0.184900  2 H  s                 21      0.184900  3 H  s          

 Vector   14  Occ=0.000000D+00  E= 1.449452D+00  Symmetry=a2
              MO Center=  4.3D-27,  2.4D-16, -7.7D-01, r^2= 3.1D+00
   Bfn.  Coefficient  Atom+Function         Bfn.  Coefficient  Atom+Function  
  ----- ------------  ---------------      ----- ------------  ---------------
    19      0.706148  2 H  py                24     -0.706148  3 H  py         

 Vector   15  Occ=0.000000D+00  E= 1.449600D+00  Symmetry=b1
              MO Center=  0.0D+00, -2.8D-17, -7.7D-01, r^2= 3.1D+00
   Bfn.  Coefficient  Atom+Function         Bfn.  Coefficient  Atom+Function  
  ----- ------------  ---------------      ----- ------------  ---------------
    20      0.526248  2 H  pz                25     -0.526248  3 H  pz         
    18     -0.469244  2 H  px                23     -0.469244  3 H  px         


 center of mass
 --------------
 x =   0.00000000 y =   0.00000000 z =  -0.03825632

 moments of inertia (a.u.)
 ------------------
           4.612684700730           0.000000000000           0.000000000000
           0.000000000000          23.730057770639           0.000000000000
           0.000000000000           0.000000000000          19.117373069909

  Mulliken analysis of the total density
  --------------------------------------

    Atom       Charge   Shell Charges
 -----------   ------   -------------------------------------------------------
    1 O    8     8.39   2.00  0.91  1.08  2.45  1.96 -0.02
    2 H    1     0.81   0.38  0.42  0.01
    3 H    1     0.81   0.38  0.42  0.01

       Multipole analysis of the density wrt the origin
       ------------------------------------------------

     L   x y z        total         open         nuclear
     -   - - -        -----         ----         -------
     0   0 0 0      0.000000      0.000000     10.000000

     1   1 0 0      0.000000      0.000000      0.000000
     1   0 1 0      0.000000      0.000000      0.000000
     1   0 0 1     -0.650537      0.000000     -1.796547

     2   2 0 0     -0.526224      0.000000     18.968941
     2   1 1 0      0.000000      0.000000      0.000000
     2   1 0 1      0.000000      0.000000      0.000000
     2   0 2 0     -6.325788      0.000000      0.000000
     2   0 1 1      0.000000      0.000000      0.000000
     2   0 0 2     -4.862403      0.000000      4.445670


 Parallel integral file used       1 records with       0 large values

                              NWChem Gradients Module
                              -----------------------


                                        h2o


  wavefunction    =   RHF     

  Using symmetry


                         RHF ENERGY GRADIENTS

    atom               coordinates                        gradient
                 x          y          z           x          y          z
   1 o       0.000000   0.000000   0.141395    0.000000   0.000000   0.072812
   2 h      -3.079687   0.000000  -1.463853   -0.096537   0.000000  -0.036406
   3 h       3.079687   0.000000  -1.463853    0.096537   0.000000  -0.036406

                 ----------------------------------------
                 |  Time  |  1-e(secs)   |  2-e(secs)   |
                 ----------------------------------------
                 |  CPU   |       0.00   |       0.14   |
                 ----------------------------------------
                 |  WALL  |       0.00   |       0.14   |
                 ----------------------------------------

  Step       Energy      Delta E   Gmax     Grms     Xrms     Xmax   Walltime
  ---- ---------------- -------- -------- -------- -------- -------- --------
@    1     -75.62244869 -9.3D-02  0.09654  0.05436  0.21557  0.39965      0.8
                                                                    

 Limiting step in negative mode    1  eval=-6.9D-02 grad= 1.6D-01 step=-9.0D-02
                                 NWChem SCF Module
                                 -----------------


                                        h2o



  aoBasis        = "aoBasis"
  functions       =    25
  atoms           =     3
  closed shells   =     5
  open shells     =     0
  charge          =   0.00
  wavefunction    = RHF 
  input vectors   = ./prop_h2o_run.movecs
  output vectors  = ./prop_h2o_run.movecs
  use symmetry    = T
  symmetry adapt  = T


 Summary of "aoBasis" -> "aoBasis" (cartesian)
 ------------------------------------------------------------------------------
       Tag                 Description            Shells   Functions and Types
 ---------------- ------------------------------  ------  ---------------------
 o                          cc-pvdz                  6       15   3s2p1d
 h                          cc-pvdz                  3        5   2s1p


      Symmetry analysis of basis
      --------------------------

        a1         12
        a2          2
        b1          7
        b2          4


 Forming initial guess at       0.9s


 Loading old vectors from job with title :

h2o


      Symmetry analysis of molecular orbitals - initial
      -------------------------------------------------

  Numbering of irreducible representations: 

     1 a1          2 a2          3 b1          4 b2      

  Orbital symmetries:

     1 a1          2 a1          3 b2          4 b1          5 a1      
     6 a1          7 b1          8 a1          9 b1         10 b2      
    11 a1         12 a1         13 b1         14 a2         15 b1      


 Starting SCF solution at       0.9s



 ----------------------------------------------
         Quadratically convergent ROHF

 Convergence threshold     :          1.000E-04
 Maximum no. of iterations :           30
 Final Fock-matrix accuracy:          1.000E-07
 ----------------------------------------------


 #quartets = 1.952D+03 #integrals = 1.793D+04 #direct =  0.0% #cached =100.0%


 Integral file          = ./prop_h2o_run.aoints.0
 Record size in doubles =  65536        No. of integs per rec  =  43688
 Max. records in memory =      2        Max. records in file   = 161052
 No. of bits per label  =      8        No. of bits per value  =     64


              iter       energy          gnorm     gmax       time
             ----- ------------------- --------- --------- --------
                 1      -75.6388999438  4.41D-02  1.64D-02      0.8
                 2      -75.6391788704  1.39D-03  7.90D-04      0.8
                 3      -75.6391802592  1.21D-05  5.38D-06      0.8


       Final RHF  results 
       ------------------ 

         Total SCF energy =    -75.639180259187
      One-electron energy =   -114.713759873979
      Two-electron energy =     34.162817364933
 Nuclear repulsion energy =      4.911762249859

        Time for solution =      0.1s



       Symmetry analysis of molecular orbitals - final
       -----------------------------------------------

  Numbering of irreducible representations: 

     1 a1          2 a2          3 b1          4 b2      

  Orbital symmetries:

     1 a1          2 a1          3 b2          4 b1          5 a1      
     6 a1          7 b1          8 a1          9 b1         10 b2      
    11 a1         12 a1         13 b1         14 a2         15 b1      

             Final eigenvalues
             -----------------

              1      
    1  -20.6397
    2   -1.1892
    3   -0.4921
    4   -0.4465
    5   -0.4266
    6   -0.0351
    7    0.0663
    8    0.6011
    9    0.6336
   10    1.1521
   11    1.1891
   12    1.2238
   13    1.2500
   14    1.4488
   15    1.4490

                       ROHF Final Molecular Orbital Analysis
                       -------------------------------------

 Vector    2  Occ=2.000000D+00  E=-1.189171D+00  Symmetry=a1
              MO Center= -1.2D-17, -1.5D-17, -8.8D-03, r^2= 4.9D-01
   Bfn.  Coefficient  Atom+Function         Bfn.  Coefficient  Atom+Function  
  ----- ------------  ---------------      ----- ------------  ---------------
     3      0.574301  1 O  s                  2      0.495064  1 O  s          

 Vector    3  Occ=2.000000D+00  E=-4.920786D-01  Symmetry=b2
              MO Center=  1.1D-17,  2.3D-17,  8.4D-04, r^2= 5.6D-01
   Bfn.  Coefficient  Atom+Function         Bfn.  Coefficient  Atom+Function  
  ----- ------------  ---------------      ----- ------------  ---------------
     5      0.664739  1 O  py                 8      0.483906  1 O  py         

 Vector    4  Occ=2.000000D+00  E=-4.465430D-01  Symmetry=b1
              MO Center=  1.8D-15,  6.1D-16, -3.4D-01, r^2= 2.1D+00
   Bfn.  Coefficient  Atom+Function         Bfn.  Coefficient  Atom+Function  
  ----- ------------  ---------------      ----- ------------  ---------------
     4      0.399304  1 O  px                 7      0.329021  1 O  px         
    16     -0.240921  2 H  s                 21      0.240921  3 H  s          
    17     -0.237892  2 H  s                 22      0.237892  3 H  s          

 Vector    5  Occ=2.000000D+00  E=-4.266131D-01  Symmetry=a1
              MO Center= -5.9D-16, -2.7D-17, -2.2D-01, r^2= 1.5D+00
   Bfn.  Coefficient  Atom+Function         Bfn.  Coefficient  Atom+Function  
  ----- ------------  ---------------      ----- ------------  ---------------
     6      0.514612  1 O  pz                 9      0.419258  1 O  pz         
    17     -0.193066  2 H  s                 22     -0.193066  3 H  s          
    16     -0.185730  2 H  s                 21     -0.185730  3 H  s          

 Vector    6  Occ=0.000000D+00  E=-3.507530D-02  Symmetry=a1
              MO Center= -1.2D-15,  3.1D-17, -5.4D-01, r^2= 3.2D+00
   Bfn.  Coefficient  Atom+Function         Bfn.  Coefficient  Atom+Function  
  ----- ------------  ---------------      ----- ------------  ---------------
    17      0.444696  2 H  s                 22      0.444696  3 H  s          
     6      0.347840  1 O  pz                 9      0.346187  1 O  pz         
     3     -0.284436  1 O  s                 16      0.259573  2 H  s          
    21      0.259573  3 H  s          

 Vector    7  Occ=0.000000D+00  E= 6.625023D-02  Symmetry=b1
              MO Center= -3.8D-16,  1.9D-16, -4.7D-01, r^2= 3.0D+00
   Bfn.  Coefficient  Atom+Function         Bfn.  Coefficient  Atom+Function  
  ----- ------------  ---------------      ----- ------------  ---------------
     7      0.528804  1 O  px                17      0.491446  2 H  s          
    22     -0.491446  3 H  s                  4      0.448853  1 O  px         
    16      0.210033  2 H  s                 21     -0.210033  3 H  s          

 Vector    8  Occ=0.000000D+00  E= 6.011457D-01  Symmetry=a1
              MO Center= -7.0D-16, -6.6D-18, -8.0D-01, r^2= 4.6D+00
   Bfn.  Coefficient  Atom+Function         Bfn.  Coefficient  Atom+Function  
  ----- ------------  ---------------      ----- ------------  ---------------
    16      0.909528  2 H  s                 17     -0.906513  2 H  s          
    21      0.909528  3 H  s                 22     -0.906513  3 H  s          
     3      0.406722  1 O  s          

 Vector    9  Occ=0.000000D+00  E= 6.336399D-01  Symmetry=b1
              MO Center=  2.5D-16,  3.7D-17, -7.9D-01, r^2= 4.9D+00
   Bfn.  Coefficient  Atom+Function         Bfn.  Coefficient  Atom+Function  
  ----- ------------  ---------------      ----- ------------  ---------------
    17     -0.986933  2 H  s                 22      0.986933  3 H  s          
    16      0.918420  2 H  s                 21     -0.918420  3 H  s          
     7     -0.247739  1 O  px                 4      0.160929  1 O  px         

 Vector   10  Occ=0.000000D+00  E= 1.152107D+00  Symmetry=b2
              MO Center=  3.9D-31,  4.6D-18, -1.2D-01, r^2= 1.5D+00
   Bfn.  Coefficient  Atom+Function         Bfn.  Coefficient  Atom+Function  
  ----- ------------  ---------------      ----- ------------  ---------------
     8      0.932911  1 O  py                 5     -0.868166  1 O  py         
    19      0.246033  2 H  py                24      0.246033  3 H  py         

 Vector   11  Occ=0.000000D+00  E= 1.189124D+00  Symmetry=a1
              MO Center= -1.4D-17,  1.6D-18, -2.0D-01, r^2= 1.6D+00
   Bfn.  Coefficient  Atom+Function         Bfn.  Coefficient  Atom+Function  
  ----- ------------  ---------------      ----- ------------  ---------------
     9      0.876089  1 O  pz                 6     -0.870536  1 O  pz         
    18     -0.217263  2 H  px                23      0.217263  3 H  px         
    20      0.171844  2 H  pz                25      0.171844  3 H  pz         

 Vector   12  Occ=0.000000D+00  E= 1.223807D+00  Symmetry=a1
              MO Center= -5.6D-17,  5.3D-17, -1.8D-01, r^2= 2.2D+00
   Bfn.  Coefficient  Atom+Function         Bfn.  Coefficient  Atom+Function  
  ----- ------------  ---------------      ----- ------------  ---------------
     3      1.334487  1 O  s                  2     -0.954723  1 O  s          
     1     -0.419453  1 O  s                 18      0.309660  2 H  px         
    23     -0.309660  3 H  px                20      0.229742  2 H  pz         
    25      0.229742  3 H  pz                13     -0.217831  1 O  dyy        
    15     -0.204621  1 O  dzz                9      0.189584  1 O  pz         

 Vector   13  Occ=0.000000D+00  E= 1.250025D+00  Symmetry=b1
              MO Center=  2.8D-17,  2.5D-33, -2.7D-01, r^2= 1.9D+00
   Bfn.  Coefficient  Atom+Function         Bfn.  Coefficient  Atom+Function  
  ----- ------------  ---------------      ----- ------------  ---------------
     4      0.820883  1 O  px                 7     -0.755017  1 O  px         
    20      0.244271  2 H  pz                25     -0.244271  3 H  pz         
    18      0.226794  2 H  px                23      0.226794  3 H  px         
    16     -0.203705  2 H  s                 21      0.203705  3 H  s          

 Vector   14  Occ=0.000000D+00  E= 1.448791D+00  Symmetry=a2
              MO Center=  9.0D-28, -4.6D-16, -7.4D-01, r^2= 3.1D+00
   Bfn.  Coefficient  Atom+Function         Bfn.  Coefficient  Atom+Function  
  ----- ------------  ---------------      ----- ------------  ---------------
    19      0.705565  2 H  py                24     -0.705565  3 H  py         

 Vector   15  Occ=0.000000D+00  E= 1.449046D+00  Symmetry=b1
              MO Center=  2.2D-16, -2.2D-17, -7.4D-01, r^2= 3.1D+00
   Bfn.  Coefficient  Atom+Function         Bfn.  Coefficient  Atom+Function  
  ----- ------------  ---------------      ----- ------------  ---------------
    20      0.541916  2 H  pz                25     -0.541916  3 H  pz         
    18     -0.448902  2 H  px                23     -0.448902  3 H  px         


 center of mass
 --------------
 x =   0.00000000 y =   0.00000000 z =  -0.14845607

 moments of inertia (a.u.)
 ------------------
           3.541696415453           0.000000000000           0.000000000000
           0.000000000000          22.438573291635           0.000000000000
           0.000000000000           0.000000000000          18.896876876182

  Mulliken analysis of the total density
  --------------------------------------

    Atom       Charge   Shell Charges
 -----------   ------   -------------------------------------------------------
    1 O    8     8.42   2.00  0.91  1.08  2.46  1.98 -0.02
    2 H    1     0.79   0.38  0.40  0.01
    3 H    1     0.79   0.38  0.40  0.01

       Multipole analysis of the density wrt the origin
       ------------------------------------------------

     L   x y z        total         open         nuclear
     -   - - -        -----         ----         -------
     0   0 0 0      0.000000      0.000000     10.000000

     1   1 0 0      0.000000      0.000000      0.000000
     1   0 1 0      0.000000      0.000000      0.000000
     1   0 0 1     -0.597500      0.000000     -2.723566

     2   2 0 0     -0.251583      0.000000     18.750157
     2   1 1 0      0.000000      0.000000      0.000000
     2   1 0 1      0.000000      0.000000      0.000000
     2   0 2 0     -6.284341      0.000000      0.000000
     2   0 1 1      0.000000      0.000000      0.000000
     2   0 0 2     -4.949743      0.000000      3.907422


 Parallel integral file used       1 records with       0 large values

 Line search: 
     step= 1.00 grad=-1.8D-02 hess= 1.2D-03 energy=    -75.639180 mode=restrict
 new step= 4.00                   predicted energy=    -75.675319

          --------
          Step   2
          --------


                         Geometry "geometry" -> "geometry"
                         ---------------------------------

 Output coordinates in angstroms (scale by  1.889725989 to convert to a.u.)

  No.       Tag          Charge          X              Y              Z
 ---- ---------------- ---------- -------------- -------------- --------------
    1 o                    8.0000     0.00000000     0.00000000    -0.20549563
    2 h                    1.0000    -1.59199783     0.00000000    -0.63447833
    3 h                    1.0000     1.59199783     0.00000000    -0.63447833

      Atomic Mass 
      ----------- 

      o                 15.994910
      h                  1.007825


 Effective nuclear repulsion energy (a.u.)       5.3014044787

            Nuclear Dipole moment (a.u.) 
            ----------------------------
        X                 Y               Z
 ---------------- ---------------- ----------------
     0.0000000000     0.0000000000    -5.5046237567

      Symmetry information
      --------------------

 Group name             C2v       
 Group number             16
 Group order               4
 No. of unique centers     2

      Symmetry unique atoms

     1    2

                                 NWChem SCF Module
                                 -----------------


                                        h2o



  aoBasis        = "aoBasis"
  functions       =    25
  atoms           =     3
  closed shells   =     5
  open shells     =     0
  charge          =   0.00
  wavefunction    = RHF 
  input vectors   = ./prop_h2o_run.movecs
  output vectors  = ./prop_h2o_run.movecs
  use symmetry    = T
  symmetry adapt  = T


 Summary of "aoBasis" -> "aoBasis" (cartesian)
 ------------------------------------------------------------------------------
       Tag                 Description            Shells   Functions and Types
 ---------------- ------------------------------  ------  ---------------------
 o                          cc-pvdz                  6       15   3s2p1d
 h                          cc-pvdz                  3        5   2s1p


      Symmetry analysis of basis
      --------------------------

        a1         12
        a2          2
        b1          7
        b2          4


 Forming initial guess at       1.0s


 Loading old vectors from job with title :

h2o


      Symmetry analysis of molecular orbitals - initial
      -------------------------------------------------

  Numbering of irreducible representations: 

     1 a1          2 a2          3 b1          4 b2      

  Orbital symmetries:

     1 a1          2 a1          3 b2          4 b1          5 a1      
     6 a1          7 b1          8 a1          9 b1         10 b2      
    11 a1         12 a1         13 b1         14 a2         15 b1      


 Starting SCF solution at       1.0s



 ----------------------------------------------
         Quadratically convergent ROHF

 Convergence threshold     :          1.000E-04
 Maximum no. of iterations :           30
 Final Fock-matrix accuracy:          1.000E-07
 ----------------------------------------------


 #quartets = 1.953D+03 #integrals = 1.794D+04 #direct =  0.0% #cached =100.0%


 Integral file          = ./prop_h2o_run.aoints.0
 Record size in doubles =  65536        No. of integs per rec  =  43688
 Max. records in memory =      2        Max. records in file   = 161052
 No. of bits per label  =      8        No. of bits per value  =     64


              iter       energy          gnorm     gmax       time
             ----- ------------------- --------- --------- --------
                 1      -75.6679950963  1.32D-01  5.29D-02      0.9
                 2      -75.6711666153  1.45D-02  9.99D-03      0.9
                 3      -75.6713387186  9.40D-04  4.87D-04      0.9
                 4      -75.6713387965  5.50D-06  2.75D-06      0.9


       Final RHF  results 
       ------------------ 

         Total SCF energy =    -75.671338796526
      One-electron energy =   -115.707542380483
      Two-electron energy =     34.734799105273
 Nuclear repulsion energy =      5.301404478684

        Time for solution =      0.1s



       Symmetry analysis of molecular orbitals - final
       -----------------------------------------------

  Numbering of irreducible representations: 

     1 a1          2 a2          3 b1          4 b2      

  Orbital symmetries:

     1 a1          2 a1          3 b1          4 b2          5 a1      
     6 a1          7 b1          8 a1          9 b1         10 b2      
    11 a1         12 a1         13 b1         14 a2         15 b1      

             Final eigenvalues
             -----------------

              1      
    1  -20.5976
    2   -1.1711
    3   -0.4661
    4   -0.4653
    5   -0.4190
    6   -0.0344
    7    0.1196
    8    0.5905
    9    0.6277
   10    1.1591
   11    1.1809
   12    1.2858
   13    1.3508
   14    1.4394
   15    1.4435

                       ROHF Final Molecular Orbital Analysis
                       -------------------------------------

 Vector    2  Occ=2.000000D+00  E=-1.171062D+00  Symmetry=a1
              MO Center= -2.4D-17, -2.8D-17, -2.2D-01, r^2= 5.1D-01
   Bfn.  Coefficient  Atom+Function         Bfn.  Coefficient  Atom+Function  
  ----- ------------  ---------------      ----- ------------  ---------------
     3      0.573829  1 O  s                  2      0.483313  1 O  s          

 Vector    3  Occ=2.000000D+00  E=-4.660631D-01  Symmetry=b1
              MO Center=  1.8D-15,  5.9D-16, -4.1D-01, r^2= 1.9D+00
   Bfn.  Coefficient  Atom+Function         Bfn.  Coefficient  Atom+Function  
  ----- ------------  ---------------      ----- ------------  ---------------
     4      0.387224  1 O  px                 7      0.312884  1 O  px         
    16     -0.253345  2 H  s                 21      0.253345  3 H  s          
    17     -0.221077  2 H  s                 22      0.221077  3 H  s          

 Vector    4  Occ=2.000000D+00  E=-4.652638D-01  Symmetry=b2
              MO Center=  1.5D-17,  3.7D-17, -2.1D-01, r^2= 5.8D-01
   Bfn.  Coefficient  Atom+Function         Bfn.  Coefficient  Atom+Function  
  ----- ------------  ---------------      ----- ------------  ---------------
     5      0.652980  1 O  py                 8      0.496024  1 O  py         

 Vector    5  Occ=2.000000D+00  E=-4.190010D-01  Symmetry=a1
              MO Center= -3.7D-16, -8.7D-18, -3.0D-01, r^2= 1.2D+00
   Bfn.  Coefficient  Atom+Function         Bfn.  Coefficient  Atom+Function  
  ----- ------------  ---------------      ----- ------------  ---------------
     6      0.550948  1 O  pz                 9      0.451881  1 O  pz         
    16     -0.165473  2 H  s                 21     -0.165473  3 H  s          
    17     -0.161634  2 H  s                 22     -0.161634  3 H  s          

 Vector    6  Occ=0.000000D+00  E=-3.438022D-02  Symmetry=a1
              MO Center= -1.4D-15,  2.2D-17, -5.4D-01, r^2= 3.3D+00
   Bfn.  Coefficient  Atom+Function         Bfn.  Coefficient  Atom+Function  
  ----- ------------  ---------------      ----- ------------  ---------------
    17      0.465354  2 H  s                 22      0.465354  3 H  s          
     3     -0.369485  1 O  s                  6      0.288675  1 O  pz         
     9      0.286168  1 O  pz                16      0.280544  2 H  s          
    21      0.280544  3 H  s          

 Vector    7  Occ=0.000000D+00  E= 1.196492D-01  Symmetry=b1
              MO Center=  1.3D-16, -1.2D-17, -5.1D-01, r^2= 3.2D+00
   Bfn.  Coefficient  Atom+Function         Bfn.  Coefficient  Atom+Function  
  ----- ------------  ---------------      ----- ------------  ---------------
     7      0.588992  1 O  px                17      0.579689  2 H  s          
    22     -0.579689  3 H  s                  4      0.443204  1 O  px         
    16      0.171206  2 H  s                 21     -0.171206  3 H  s          

 Vector    8  Occ=0.000000D+00  E= 5.904988D-01  Symmetry=a1
              MO Center=  5.2D-16, -8.0D-18, -6.8D-01, r^2= 4.6D+00
   Bfn.  Coefficient  Atom+Function         Bfn.  Coefficient  Atom+Function  
  ----- ------------  ---------------      ----- ------------  ---------------
    17      0.918490  2 H  s                 22      0.918490  3 H  s          
    16     -0.902454  2 H  s                 21     -0.902454  3 H  s          
     3     -0.456443  1 O  s          

 Vector    9  Occ=0.000000D+00  E= 6.277353D-01  Symmetry=b1
              MO Center=  1.2D-16,  2.9D-16, -6.5D-01, r^2= 4.7D+00
   Bfn.  Coefficient  Atom+Function         Bfn.  Coefficient  Atom+Function  
  ----- ------------  ---------------      ----- ------------  ---------------
    17      0.964408  2 H  s                 22     -0.964408  3 H  s          
    16     -0.909049  2 H  s                 21      0.909049  3 H  s          
     4     -0.232967  1 O  px                 7      0.228240  1 O  px         

 Vector   10  Occ=0.000000D+00  E= 1.159129D+00  Symmetry=b2
              MO Center=  3.9D-31,  3.4D-18, -3.0D-01, r^2= 1.5D+00
   Bfn.  Coefficient  Atom+Function         Bfn.  Coefficient  Atom+Function  
  ----- ------------  ---------------      ----- ------------  ---------------
     8      0.889687  1 O  py                 5     -0.857391  1 O  py         
    19      0.269110  2 H  py                24      0.269110  3 H  py         

 Vector   11  Occ=0.000000D+00  E= 1.180892D+00  Symmetry=a1
              MO Center=  0.0D+00, -1.1D-17, -2.2D-01, r^2= 1.5D+00
   Bfn.  Coefficient  Atom+Function         Bfn.  Coefficient  Atom+Function  
  ----- ------------  ---------------      ----- ------------  ---------------
     9      0.867603  1 O  pz                 6     -0.858849  1 O  pz         
    20      0.282828  2 H  pz                25      0.282828  3 H  pz         
     3      0.164028  1 O  s          

 Vector   12  Occ=0.000000D+00  E= 1.285800D+00  Symmetry=a1
              MO Center= -1.3D-16,  6.4D-17, -4.7D-01, r^2= 2.0D+00
   Bfn.  Coefficient  Atom+Function         Bfn.  Coefficient  Atom+Function  
  ----- ------------  ---------------      ----- ------------  ---------------
     3      1.229124  1 O  s                  2     -0.928555  1 O  s          
     1     -0.398901  1 O  s                 18      0.394985  2 H  px         
    23     -0.394985  3 H  px                13     -0.204000  1 O  dyy        
    15     -0.197178  1 O  dzz        

 Vector   13  Occ=0.000000D+00  E= 1.350766D+00  Symmetry=b1
              MO Center=  0.0D+00,  7.4D-17, -3.5D-01, r^2= 1.8D+00
   Bfn.  Coefficient  Atom+Function         Bfn.  Coefficient  Atom+Function  
  ----- ------------  ---------------      ----- ------------  ---------------
     4      0.825054  1 O  px                 7     -0.776942  1 O  px         
    20      0.282887  2 H  pz                25     -0.282887  3 H  pz         
    16     -0.236464  2 H  s                 21      0.236464  3 H  s          
    18      0.206300  2 H  px                23      0.206300  3 H  px         

 Vector   14  Occ=0.000000D+00  E= 1.439399D+00  Symmetry=a2
              MO Center= -3.3D-16, -2.0D-15, -6.3D-01, r^2= 3.0D+00
   Bfn.  Coefficient  Atom+Function         Bfn.  Coefficient  Atom+Function  
  ----- ------------  ---------------      ----- ------------  ---------------
    19      0.702683  2 H  py                24     -0.702683  3 H  py         

 Vector   15  Occ=0.000000D+00  E= 1.443531D+00  Symmetry=b1
              MO Center=  0.0D+00,  5.9D-17, -6.3D-01, r^2= 2.9D+00
   Bfn.  Coefficient  Atom+Function         Bfn.  Coefficient  Atom+Function  
  ----- ------------  ---------------      ----- ------------  ---------------
    20      0.582247  2 H  pz                25     -0.582247  3 H  pz         
    18     -0.365070  2 H  px                23     -0.365070  3 H  px         
     4     -0.197753  1 O  px         


 center of mass
 --------------
 x =   0.00000000 y =   0.00000000 z =  -0.47905533

 moments of inertia (a.u.)
 ------------------
           1.176378124149           0.000000000000           0.000000000000
           0.000000000000          19.419440222596           0.000000000000
           0.000000000000           0.000000000000          18.243062098447

  Mulliken analysis of the total density
  --------------------------------------

    Atom       Charge   Shell Charges
 -----------   ------   -------------------------------------------------------
    1 O    8     8.54   2.00  0.88  1.08  2.52  2.07 -0.01
    2 H    1     0.73   0.38  0.34  0.01
    3 H    1     0.73   0.38  0.34  0.01

       Multipole analysis of the density wrt the origin
       ------------------------------------------------

     L   x y z        total         open         nuclear
     -   - - -        -----         ----         -------
     0   0 0 0      0.000000      0.000000     10.000000

     1   1 0 0      0.000000      0.000000      0.000000
     1   0 1 0      0.000000      0.000000      0.000000
     1   0 0 1     -0.401809      0.000000     -5.504624

     2   2 0 0      0.723480      0.000000     18.101418
     2   1 1 0      0.000000      0.000000      0.000000
     2   1 0 1      0.000000      0.000000      0.000000
     2   0 2 0     -6.172110      0.000000      0.000000
     2   0 1 1      0.000000      0.000000      0.000000
     2   0 0 2     -5.286048      0.000000      4.081559


 Parallel integral file used       1 records with       0 large values

                              NWChem Gradients Module
                              -----------------------


                                        h2o


  wavefunction    =   RHF     

[...]
          Quadrupole Moment
          -----------------

 Center of charge (in au) is the expansion point
         X =       0.0000000 Y =       0.0000000 Z =      -0.4177198

 < R**2 > =  18.596502 a.u.  ( 1 a.u. = 0.280023 10**(-16) cm**2 ) 
 ( also called diamagnetic susceptibility ) 

   Second moments in atomic units

   Component  Electronic+nuclear     Point charges             Total
  --------------------------------------------------------------------------
      XX           -3.0890739336          0.0000000000         -3.0890739336
      YY           -5.2109352482          0.0000000000         -5.2109352482
      ZZ           -4.3785029307          0.0000000000         -4.3785029307
      XY            0.0000000000          0.0000000000          0.0000000000
      XZ            0.0000000000          0.0000000000          0.0000000000
      YZ            0.0000000000          0.0000000000          0.0000000000

   Second moments in buckingham(s)

   Component  Electronic+nuclear     Point charges             Total
  --------------------------------------------------------------------------
      XX           -4.1545295131          0.0000000000         -4.1545295131
      YY           -7.0082441355          0.0000000000         -7.0082441355
      ZZ           -5.8886967550          0.0000000000         -5.8886967550
      XY            0.0000000000          0.0000000000          0.0000000000
      XZ            0.0000000000          0.0000000000          0.0000000000
      YZ            0.0000000000          0.0000000000          0.0000000000

   Quadrupole moments in atomic units

   Component  Electronic+nuclear     Point charges             Total
  --------------------------------------------------------------------------
      XX            1.7056451559          0.0000000000          1.7056451559
      YY           -1.4771468160          0.0000000000         -1.4771468160
      ZZ           -0.2284983398          0.0000000000         -0.2284983398
      XY            0.0000000000          0.0000000000          0.0000000000
      XZ            0.0000000000          0.0000000000          0.0000000000
      YZ            0.0000000000          0.0000000000          0.0000000000

   Quadrupole moments in buckingham(s)

   Component  Electronic+nuclear     Point charges             Total
  --------------------------------------------------------------------------
      XX            2.2939409322          0.0000000000          2.2939409322
      YY           -1.9866310015          0.0000000000         -1.9866310015
      ZZ           -0.3073099307          0.0000000000         -0.3073099307
      XY            0.0000000000          0.0000000000          0.0000000000
      XZ            0.0000000000          0.0000000000          0.0000000000
      YZ            0.0000000000          0.0000000000          0.0000000000

 1 a.u. = 1.344911 Buckinghams = 1.344911 10**(-26) esu*cm**2 

          ---------------
          Octupole Moment
          ---------------

 Center of charge (in au) is the expansion point
         X =       0.0000000 Y =       0.0000000 Z =      -0.4177198

   Third moments in atomic units

   Component  Electronic+nuclear     Point charges             Total
  --------------------------------------------------------------------------
      XXX           0.0000000000          0.0000000000          0.0000000000
      YYY           0.0000000000          0.0000000000          0.0000000000
      ZZZ          -1.6917967690          0.0000000000         -1.6917967690
      XXY           0.0000000000          0.0000000000          0.0000000000
      XXZ          -1.7594224279          0.0000000000         -1.7594224279
      YYX           0.0000000000          0.0000000000          0.0000000000
      YYZ          -0.4313100751          0.0000000000         -0.4313100751
      ZZX           0.0000000000          0.0000000000          0.0000000000
      ZZY           0.0000000000          0.0000000000          0.0000000000
      XYZ           0.0000000000          0.0000000000          0.0000000000

   Third moments in 10**(-34) esu*cm**3

   Component  Electronic+nuclear     Point charges             Total
  --------------------------------------------------------------------------
      XXX           0.0000000000          0.0000000000          0.0000000000
      YYY           0.0000000000          0.0000000000          0.0000000000
      ZZZ          -1.2040314590          0.0000000000         -1.2040314590
      XXY           0.0000000000          0.0000000000          0.0000000000
      XXZ          -1.2521598288          0.0000000000         -1.2521598288
      YYX           0.0000000000          0.0000000000          0.0000000000
      YYZ          -0.3069582047          0.0000000000         -0.3069582047
      ZZX           0.0000000000          0.0000000000          0.0000000000
      ZZY           0.0000000000          0.0000000000          0.0000000000
      XYZ           0.0000000000          0.0000000000          0.0000000000

   Octupole moments in atomic units

   Component  Electronic+nuclear     Point charges             Total
  --------------------------------------------------------------------------
      XXX           0.0000000000          0.0000000000          0.0000000000
      YYY           0.0000000000          0.0000000000          0.0000000000
      ZZZ           1.5943019854          0.0000000000          1.5943019854
      XXY           0.0000000000          0.0000000000          0.0000000000
      XXZ          -2.4572914336          0.0000000000         -2.4572914336
      YYX           0.0000000000          0.0000000000          0.0000000000
      YYZ           0.8629894482          0.0000000000          0.8629894482
      ZZX           0.0000000000          0.0000000000          0.0000000000
      ZZY           0.0000000000          0.0000000000          0.0000000000
      XYZ           0.0000000000          0.0000000000          0.0000000000

   Octupole moments in 10**(-34) esu*cm**3

   Component  Electronic+nuclear     Point charges             Total
  --------------------------------------------------------------------------
      XXX           0.0000000000          0.0000000000          0.0000000000
      YYY           0.0000000000          0.0000000000          0.0000000000
      ZZZ           1.1346455914          0.0000000000          1.1346455914
      XXY           0.0000000000          0.0000000000          0.0000000000
      XXZ          -1.7488248258          0.0000000000         -1.7488248258
      YYX           0.0000000000          0.0000000000          0.0000000000
      YYZ           0.6141792344          0.0000000000          0.6141792344
      ZZX           0.0000000000          0.0000000000          0.0000000000
      ZZY           0.0000000000          0.0000000000          0.0000000000
      XYZ           0.0000000000          0.0000000000          0.0000000000

 1 a.u. = 0.711688 10**(-34) esu*cm**3 


          ----------------------------
          Mulliken population analysis
          ----------------------------

 Total      S,P,D,... shell population
 --------------------------------
    Atom          S        P        D
 --------------------------------------------------------------------------------------
     1 O      3.63752   4.63338   0.01882
     2 H      0.76719   0.08795   0.00000
     3 H      0.76719   0.08795   0.00000

          ----- Total      gross population on atoms ----

              1  O    8.0     8.28972
              2  H    1.0     0.85514
              3  H    1.0     0.85514

          ----- Bond indices -----
  1- 1   0.00000  1- 2   1.02578  1- 3   1.02578
  2- 1   1.02578  2- 2   0.00000  2- 3   0.00905
  3- 1   1.02578  3- 2   0.00905  3- 3   0.00000

 Large bond indices
 ------------------
  1   O -  2   H    1.02578
  1   O -  3   H    1.02578

                                                                Free electrons             Valency
                              Number of         Sum of          + Bond indices         - Bond indices    
                Valency     Free electrons    Bond indices     =Mulliken charge     = Net spin population
     1  O       2.05155        6.23817          2.05155           8.28972                 0.00000
     2  H       1.03482       -0.17969          1.03482           0.85514                 0.00000
     3  H       1.03482       -0.17969          1.03482           0.85514                 0.00000

          ---------------------------------------------
          Electrostatic potential/diamagnetic shielding
          ---------------------------------------------

 1 a.u. = 9.07618 esu/cm ( or statvolts ) 
   Point      X         Y         Z     Total Potential(a.u.)   Diamagnetic shielding(a.u.)
    1 O    0.00000   0.00000  -0.19870     -22.339055            23.457290
    2 H   -1.41407   0.00000  -1.29381      -1.004545             5.831076
    3 H    1.41407   0.00000  -1.29381      -1.004545             5.831076

          --------------
          Electric field
          --------------

 1 a.u. = 0.171524 10**(-8) dyn/esu 

   Atom       X         Y         Z                        Electric field (a.u.)
                                              X              Y              Z           Field
  ------------------------------------------------------------------------------------------------
    1 O    0.00000   0.00000  -0.19870       0.000000       0.000000       0.101498       0.101498
    2 H   -1.41407   0.00000  -1.29381      -0.016201       0.000000      -0.009043       0.018554
    3 H    1.41407   0.00000  -1.29381       0.016201       0.000000      -0.009043       0.018554

          -----------------------
          Electric field gradient
          -----------------------

 1 a.u. = 0.324123 10**(16) esu/cm**3  ( or statvolts/cm**2 ) = 0.97174 10**(22) v/m**2 


 ------------------------------------------------------------
   Atom      X         Y         Z
 ------------------------------------------------------------
    1 O    0.00000   0.00000  -0.19870
 ------------------------------------------------------------

 Electric field gradient in molecular frame (a.u.)
         XX             YY             ZZ             XY             XZ             YZ
 ------------------------------------------------------------------------------------------
       -1.741626       1.942387      -0.200761       0.000000       0.000000       0.000000

 Principal components (a.u.) and orientation 
 of principal axis w.r.t. absolute frame                      Asymmetry parameter eta
 --------------------------------------------------------------------------------------
       -0.200761      -1.741626       1.942387                      18.350226

        0.000000       1.000000       0.000000
        0.000000       0.000000       1.000000
        1.000000       0.000000       0.000000
  

 ------------------------------------------------------------
   Atom      X         Y         Z
 ------------------------------------------------------------
    2 H   -1.41407   0.00000  -1.29381
 ------------------------------------------------------------

 Electric field gradient in molecular frame (a.u.)
         XX             YY             ZZ             XY             XZ             YZ
 ------------------------------------------------------------------------------------------
       -0.259016       0.304674      -0.045659       0.000000      -0.372798       0.000000

 Principal components (a.u.) and orientation 
 of principal axis w.r.t. absolute frame                      Asymmetry parameter eta
 --------------------------------------------------------------------------------------
        0.235424       0.304674      -0.540098                       3.588306

       -0.602032       0.000000      -0.798472
        0.000000       1.000000       0.000000
        0.798472       0.000000      -0.602032
  

 ------------------------------------------------------------
   Atom      X         Y         Z
 ------------------------------------------------------------
    3 H    1.41407   0.00000  -1.29381
 ------------------------------------------------------------

 Electric field gradient in molecular frame (a.u.)
         XX             YY             ZZ             XY             XZ             YZ
 ------------------------------------------------------------------------------------------
       -0.259016       0.304674      -0.045659       0.000000       0.372798       0.000000

 Principal components (a.u.) and orientation 
 of principal axis w.r.t. absolute frame                      Asymmetry parameter eta
 --------------------------------------------------------------------------------------
        0.235424       0.304674      -0.540098                       3.588306

        0.602032       0.000000      -0.798472
        0.000000       1.000000       0.000000
        0.798472       0.000000       0.602032
  

          ---------------------
          Electron/spin density
          ---------------------

 1 a.u. = 4.80286 10**(-10) esu 

 Total electron density 
 ---------------------- 
   Point      X         Y         Z      Density (a.u.)
    1 O    0.00000   0.00000  -0.19870     296.979293
    2 H   -1.41407   0.00000  -1.29381       0.370507
    3 H    1.41407   0.00000  -1.29381       0.370507

          -----------------------------------------
          Chemical Shielding Tensors (GIAO, in ppm)
          -----------------------------------------

                                NWChem CPHF Module
                                ------------------


  scftype          =     RHF 
  nclosed          =        5
  nopen            =        0
  variables        =      100
  # of vectors     =        3
  tolerance        = 0.10D-03
  level shift      = 0.00D+00
  max iterations   =       50
  max subspace     =       30

 SCF residual:   3.629953178722853E-008


Iterative solution of linear equations
  No. of variables      100
  No. of equations        3
  Maximum subspace       30
        Iterations       50
       Convergence  1.0D-04
        Start time      9.1


   iter   nsub   residual    time
   ----  ------  --------  ---------
     1      3    3.76D-01       9.3
     2      6    6.70D-02       9.4
     3      9    9.96D-03       9.5
     4     12    9.51D-04       9.6
     5     15    1.38D-04       9.7
     6     18    1.07D-05       9.8
      Atom:    1  O 
        Diamagnetic
    395.9336      0.0000      0.0000
      0.0000    362.1806      0.0000
      0.0000      0.0000    381.3515

        Paramagnetic
    -22.4646      0.0000      0.0000
      0.0000    -25.3590      0.0000
      0.0000      0.0000    -31.5673

        Total Shielding Tensor
    373.4690      0.0000      0.0000
      0.0000    336.8216      0.0000
      0.0000      0.0000    349.7843

           isotropic =     353.3583
          anisotropy =     -24.8050

          Principal Components and Axis System
                 1           2           3
              336.8216    349.7843    373.4690

      1         0.0000      0.0000      1.0000
      2         1.0000      0.0000      0.0000
      3         0.0000      1.0000      0.0000



      Atom:    2  H 
        Diamagnetic
     39.6531      0.0000      7.5360
      0.0000     24.5866      0.0000
      7.5360      0.0000     31.7106

        Paramagnetic
      0.0532      0.0000      1.3586
      0.0000     -0.2307      0.0000
      1.3586      0.0000     -0.3881

        Total Shielding Tensor
     39.7063      0.0000      8.8946
      0.0000     24.3559      0.0000
      8.8946      0.0000     31.3225

           isotropic =      31.7949
          anisotropy =     -11.1585

          Principal Components and Axis System
                 1           2           3
               24.3559     25.6815     45.3473

      1         0.0000     -0.5356      0.8445
      2         1.0000      0.0000      0.0000
      3         0.0000      0.8445      0.5356



      Atom:    3  H 
        Diamagnetic
     39.6531      0.0000     -7.5360
      0.0000     24.5866      0.0000
     -7.5360      0.0000     31.7106

        Paramagnetic
      0.0532      0.0000     -1.3586
      0.0000     -0.2307      0.0000
     -1.3586      0.0000     -0.3881

        Total Shielding Tensor
     39.7063      0.0000     -8.8946
      0.0000     24.3559      0.0000
     -8.8946      0.0000     31.3225

           isotropic =      31.7949
          anisotropy =     -11.1585

          Principal Components and Axis System
                 1           2           3
               24.3559     25.6815     45.3473

      1         0.0000      0.5356      0.8445
      2         1.0000      0.0000      0.0000
      3         0.0000      0.8445     -0.5356




 Task  times  cpu:        1.4s     wall:        1.4s
 Summary of allocated global arrays
-----------------------------------
  No active global arrays



                         GA Statistics for process    0
                         ------------------------------

       create   destroy   get      put      acc     scatter   gather  read&inc
calls: 8093     8093     2.77e+05 5.17e+04 1.21e+05  371        0        0     
number of processes/call 1.00e+00 1.00e+00 1.00e+00 1.00e+00 0.00e+00
bytes total:             9.19e+07 3.32e+07 5.01e+07 1.63e+06 0.00e+00 0.00e+00
bytes remote:            0.00e+00 0.00e+00 0.00e+00 0.00e+00 0.00e+00 0.00e+00
Max memory consumed for GA by this process: 397800 bytes
MA_summarize_allocated_blocks: starting scan ...
MA_summarize_allocated_blocks: scan completed: 0 heap blocks, 0 stack blocks
MA usage statistics:

	allocation statistics:
					      heap	     stack
					      ----	     -----
	current number of blocks	         0	         0
	maximum number of blocks	        25	        36
	current total bytes		         0	         0
	maximum total bytes		   1061440	  67580728
	maximum total K-bytes		      1062	     67581
	maximum total M-bytes		         2	        68


                                NWChem Input Module
                                -------------------





                                     CITATION
                                     --------
                Please cite the following reference when publishing
                           results obtained with NWChem:

                 M. Valiev, E.J. Bylaska, N. Govind, K. Kowalski,
              T.P. Straatsma, H.J.J. van Dam, D. Wang, J. Nieplocha,
                        E. Apra, T.L. Windus, W.A. de Jong
                 "NWChem: a comprehensive and scalable open-source
                  solution for large scale molecular simulations"
                      Comput. Phys. Commun. 181, 1477 (2010)
                           doi:10.1016/j.cpc.2010.04.018

                              AUTHORS & CONTRIBUTORS
                              ----------------------
      E. J. Bylaska, W. A. de Jong, N. Govind, K. Kowalski, T. P. Straatsma,
     M. Valiev, H. J. J. van Dam, D. Wang, E. Apra, T. L. Windus, J. Hammond,
    J. Autschbach, F. Aquino, J. Mullin, P. Nichols, S. Hirata, M. T. Hackler,
   Y. Zhao, P.-D. Fan, R. J. Harrison, M. Dupuis, D. M. A. Smith, K. Glaesemann,
    J. Nieplocha, V. Tipparaju, M. Krishnan, A. Vazquez-Mayagoitia, L. Jensen,
      M. Swart, Q. Wu, T. Van Voorhis, A. A. Auer, M. Nooijen, L. D. Crosby,
        E. Brown, G. Cisneros, G. I. Fann, H. Fruchtl, J. Garza, K. Hirao,
        R. Kendall, J. A. Nichols, K. Tsemekhman, K. Wolinski, J. Anchell,
       D. Bernholdt, P. Borowski, T. Clark, D. Clerc, H. Dachsel, M. Deegan,
        K. Dyall, D. Elwood, E. Glendening, M. Gutowski, A. Hess, J. Jaffe,
        B. Johnson, J. Ju, R. Kobayashi, R. Kutteh, Z. Lin, R. Littlefield,
    X. Long, B. Meng, T. Nakajima, S. Niu, L. Pollack, M. Rosing, G. Sandrone,
       M. Stave, H. Taylor, G. Thomas, J. H. van Lenthe, A. Wong, Z. Zhang.

 Total times  cpu:        9.1s     wall:        9.8s
